                         Program Version 4.0.1.2 - RELEASE -
|  1> # avogadro generated ORCA input file
|  2> # Basic Mode
|  3> #
|  4> ! PBE FREQ def2-TZVP
|  5>
|  6> * xyzfile 0 1 opt.xyz
|  7>
|  8>
|  9>                          ****END OF INPUT****

CARTESIAN COORDINATES (ANGSTROEM)
---------------------------------
  N     -2.151444    0.642568    0.018616
  H     -1.358176    0.391447    0.612524
  H     -1.805379    1.339924   -0.644065
  H     -2.374681   -0.190039   -0.530705

 Total Charge           Charge          ....    0
 Multiplicity           Mult            ....    1
 Number of Electrons    NEL             ....   10
 Basis Dimension        Dim             ....   49

ORBITAL ENERGIES
----------------

  NO   OCC          E(Eh)            E(eV)
   0   2.0000     -13.958648      -379.8341
   1   2.0000      -0.771914       -21.0048
   2   2.0000      -0.408940       -11.1278
   3   2.0000      -0.408840       -11.1251
   4   2.0000      -0.220278        -5.9941
   5   0.0000       0.007413         0.2017
   6   0.0000       0.088098         2.3973
   7   0.0000       0.088697         2.4136
   8   0.0000       0.271415         7.3856
   9   0.0000       0.272419         7.4129

MULLIKEN ATOMIC CHARGES
-----------------------
   0 N :   -0.677204
   1 H :    0.226615
   2 H :    0.226758
   3 H :    0.223831
Sum of atomic charges:   -0.0000000

LOEWDIN ATOMIC CHARGES
----------------------
   0 N :   -0.402975
   1 H :    0.134481
   2 H :    0.134411
   3 H :    0.134084

  Mayer bond orders larger than 0.1
B(  0-N ,  1-H ) :   0.9444 B(  0-N ,  2-H ) :   0.9446 B(  0-N ,  3-H ) :   0.9457

FINAL SINGLE POINT ENERGY       -56.508202465044

DIPOLE MOMENT
-------------
                                X             Y             Z
Electronic contribution:     -0.18491       0.07765       0.12543
Nuclear contribution   :      0.70656      -0.29800      -0.47672
                        -----------------------------------------
Total Dipole Moment    :      0.52165      -0.22035      -0.35129
                        -----------------------------------------
Magnitude (a.u.)       :      0.66639
Magnitude (Debye)      :      1.69382

VIBRATIONAL FREQUENCIES
-----------------------

   0:         0.00 cm**-1
   1:         0.00 cm**-1
   2:         0.00 cm**-1
   3:         0.00 cm**-1
   4:         0.00 cm**-1
   5:         0.00 cm**-1
   6:      1021.00 cm**-1
   7:      1625.13 cm**-1
   8:      1625.64 cm**-1
   9:      3379.18 cm**-1
  10:      3502.29 cm**-1
  11:      3503.81 cm**-1

IR SPECTRUM
-----------

 Mode    freq (cm**-1)   T**2         TX         TY         TZ
-------------------------------------------------------------------
   6:      1021.00  154.665603  ( -9.732906   4.116588   6.556664)
   7:      1625.13   19.735261  (  1.956436   3.969364   0.389571)
   8:      1625.64   19.715712  ( -1.987224   1.331555  -3.740804)
   9:      3379.18    2.373249  ( -1.193194   0.503493   0.834285)
  10:      3502.29    0.533012  ( -0.086625   0.528913  -0.495742)
  11:      3503.81    0.564739  (  0.458066   0.426680   0.415763)

--------------------------
THERMOCHEMISTRY AT 298.15K
--------------------------

Temperature         ... 298.15 K
Pressure            ... 1.00 atm
Total Mass          ... 17.03 AMU

Throughout the following assumptions are being made:
  (1) The electronic state is orbitally nondegenerate
  (2) There are no thermally accessible electronically excited states
  (3) Hindered rotations indicated by low frequency modes are not
      treated as such but are treated as vibrations and this may
      cause some error
  (4) All equations used are the standard statistical mechanics
      equations for an ideal gas
  (5) All vibrations are strictly harmonic

freq.    1021.00  E(vib)   ...       0.02
freq.    1625.13  E(vib)   ...       0.00
freq.    1625.64  E(vib)   ...       0.00
freq.    3379.18  E(vib)   ...       0.00
freq.    3502.29  E(vib)   ...       0.00
freq.    3503.81  E(vib)   ...       0.00

------------
INNER ENERGY
------------

The inner energy is: U= E(el) + E(ZPE) + E(vib) + E(rot) + E(trans)
    E(el)   - is the total energy from the electronic structure calculation
              = E(kin-el) + E(nuc-el) + E(el-el) + E(nuc-nuc)
    E(ZPE)  - the the zero temperature vibrational energy from the frequency calculation
    E(vib)  - the the finite temperature correction to E(ZPE) due to population
              of excited vibrational states
    E(rot)  - is the rotational thermal energy
    E(trans)- is the translational thermal energy

Summary of contributions to the inner energy U:
Electronic energy                ...    -56.50820247 Eh
Zero point energy                ...      0.03339122 Eh      20.95 kcal/mol
Thermal vibrational correction   ...      0.00003979 Eh       0.02 kcal/mol
Thermal rotational correction    ...      0.00141627 Eh       0.89 kcal/mol
Thermal translational correction ...      0.00141627 Eh       0.89 kcal/mol
-----------------------------------------------------------------------
Total thermal energy                    -56.47193892 Eh

Summary of corrections to the electronic energy:
(perhaps to be used in another calculation)
Total thermal correction                  0.00287233 Eh       1.80 kcal/mol
Non-thermal (ZPE) correction              0.03339122 Eh      20.95 kcal/mol
-----------------------------------------------------------------------
Total correction                          0.03626354 Eh      22.76 kcal/mol

--------
ENTHALPY
--------

The enthalpy is H = U + kB*T
                kB is Boltzmann's constant
Total free energy                 ...    -56.47193892 Eh
Thermal Enthalpy correction       ...      0.00094421 Eh       0.59 kcal/mol
-----------------------------------------------------------------------
Total Enthalpy                    ...    -56.47099471 Eh

Vibrational entropy computed according to the QRRHO of S. Grimme
Chem.Eur.J. 2012 18 9955

-------
ENTROPY
-------

The entropy contributions are T*S = T*(S(el)+S(vib)+S(rot)+S(trans)
     S(el)   - electronic entropy
     S(vib)  - vibrational entropy
     S(rot)  - rotational entropy
     S(trans)- translational entropy
The entropies will be listed as mutliplied by the temperature to get
units of energy

Electronic entropy                ...      0.00000000 Eh      0.00 kcal/mol
Vibrational entropy               ...      0.00004742 Eh      0.03 kcal/mol
Rotational entropy                ...      0.00545843 Eh      3.43 kcal/mol
Translational entropy             ...      0.01636425 Eh     10.27 kcal/mol
-----------------------------------------------------------------------
Final entropy term                ...      0.02187009 Eh     13.72 kcal/mol

CAUTION: The rotational entropy is not quite correctly treated here
         because it includes a symmetry number that is not yet correctly
         implemented in ORCA!
For a nonlinear molecule the correct rotational entropy is:
    S(rot) = R*(ln(qrot/sn)+1.5)
    R    = 8.31441 J/mol/K = 1.987191683e-3 kcal/mol/K
    qrot =  216.9650435
    sn is the rotational symmetry number. We have assumed 3 here
       if it is different for your molecule then you should correct
       the printed rotational entropy by manually evaluating the equation
       as given above

For convenience we print out the resulting values for sn=1 - 12:
 sn= 1  qrot/sn=     216.9650 T*S(rot)=     4.08 kcal/mol T*S(tot)=    14.37 kcal/mol
 sn= 2  qrot/sn=     108.4825 T*S(rot)=     3.67 kcal/mol T*S(tot)=    13.96 kcal/mol
 sn= 3  qrot/sn=      72.3217 T*S(rot)=     3.43 kcal/mol T*S(tot)=    13.72 kcal/mol
 sn= 4  qrot/sn=      54.2413 T*S(rot)=     3.25 kcal/mol T*S(tot)=    13.55 kcal/mol
 sn= 5  qrot/sn=      43.3930 T*S(rot)=     3.12 kcal/mol T*S(tot)=    13.42 kcal/mol
 sn= 6  qrot/sn=      36.1608 T*S(rot)=     3.01 kcal/mol T*S(tot)=    13.31 kcal/mol
 sn= 7  qrot/sn=      30.9950 T*S(rot)=     2.92 kcal/mol T*S(tot)=    13.22 kcal/mol
 sn= 8  qrot/sn=      27.1206 T*S(rot)=     2.84 kcal/mol T*S(tot)=    13.14 kcal/mol
 sn= 9  qrot/sn=      24.1072 T*S(rot)=     2.77 kcal/mol T*S(tot)=    13.07 kcal/mol
 sn=10  qrot/sn=      21.6965 T*S(rot)=     2.71 kcal/mol T*S(tot)=    13.01 kcal/mol
 sn=11  qrot/sn=      19.7241 T*S(rot)=     2.66 kcal/mol T*S(tot)=    12.95 kcal/mol
 sn=12  qrot/sn=      18.0804 T*S(rot)=     2.60 kcal/mol T*S(tot)=    12.90 kcal/mol

-------------------
GIBBS FREE ENTHALPY
-------------------

The Gibbs free enthalpy is G = H - T*S

Total enthalpy                    ...    -56.47099471 Eh
Total entropy correction          ...     -0.02187009 Eh    -13.72 kcal/mol
-----------------------------------------------------------------------
Final Gibbs free enthalpy         ...    -56.49286480 Eh

For completeness - the Gibbs free enthalpy minus the electronic energy
G-E(el)                           ...      0.01533766 Eh      9.62 kcal/mol

                             ****ORCA TERMINATED NORMALLY****
TOTAL RUN TIME: 0 days 0 hours 0 minutes 11 seconds 792 msec
