                         Program Version 4.0.1.2 - RELEASE -
|  1> # avogadro generated ORCA input file
|  2> # Basic Mode
|  3> #
|  4> ! PBE FREQ def2-TZVP
|  5>
|  6> * xyzfile 0 1 opt.xyz
|  7>
|  8>
|  9>                          ****END OF INPUT****

CARTESIAN COORDINATES (ANGSTROEM)
---------------------------------
  O     -3.599355    1.371946    0.000290
  H     -2.848501    1.176475    0.584022
  H     -3.267404    2.065179   -0.593191

 Total Charge           Charge          ....    0
 Multiplicity           Mult            ....    1
 Number of Electrons    NEL             ....   10
 Basis Dimension        Dim             ....   43

ORBITAL ENERGIES
----------------

  NO   OCC          E(Eh)            E(eV)
   0   2.0000     -18.745110      -510.0804
   1   2.0000      -0.919908       -25.0320
   2   2.0000      -0.474472       -12.9110
   3   2.0000      -0.333063        -9.0631
   4   2.0000      -0.255151        -6.9430
   5   0.0000      -0.003765        -0.1025
   6   0.0000       0.071359         1.9418
   7   0.0000       0.324423         8.8280
   8   0.0000       0.377342        10.2680
   9   0.0000       0.397512        10.8169

MULLIKEN ATOMIC CHARGES
-----------------------
   0 O :   -0.622106
   1 H :    0.311053
   2 H :    0.311053
Sum of atomic charges:    0.0000000

LOEWDIN ATOMIC CHARGES
----------------------
   0 O :   -0.314689
   1 H :    0.157397
   2 H :    0.157292

  Mayer bond orders larger than 0.1
B(  0-O ,  1-H ) :   0.9145 B(  0-O ,  2-H ) :   0.9144

FINAL SINGLE POINT ENERGY       -76.376892527772

DIPOLE MOMENT
-------------
                                X             Y             Z
Electronic contribution:     -0.17325      -0.08044       0.00233
Nuclear contribution   :      0.90128       0.41432      -0.00811
                        -----------------------------------------
Total Dipole Moment    :      0.72804       0.33388      -0.00579
                        -----------------------------------------
Magnitude (a.u.)       :      0.80096
Magnitude (Debye)      :      2.03589

VIBRATIONAL FREQUENCIES
-----------------------

   0:         0.00 cm**-1
   1:         0.00 cm**-1
   2:         0.00 cm**-1
   3:         0.00 cm**-1
   4:         0.00 cm**-1
   5:         0.00 cm**-1
   6:      1583.36 cm**-1
   7:      3689.53 cm**-1
   8:      3797.06 cm**-1

IR SPECTRUM
-----------

 Mode    freq (cm**-1)   T**2         TX         TY         TZ
-------------------------------------------------------------------
   6:      1583.36   71.795396  (  7.696371   3.543364  -0.076423)
   7:      3689.53    1.712566  (  1.183726   0.557074  -0.032031)
   8:      3797.06   33.190056  ( -1.597198   3.319122  -4.429723)

--------------------------
THERMOCHEMISTRY AT 298.15K
--------------------------

Temperature         ... 298.15 K
Pressure            ... 1.00 atm
Total Mass          ... 18.02 AMU

Throughout the following assumptions are being made:
  (1) The electronic state is orbitally nondegenerate
  (2) There are no thermally accessible electronically excited states
  (3) Hindered rotations indicated by low frequency modes are not
      treated as such but are treated as vibrations and this may
      cause some error
  (4) All equations used are the standard statistical mechanics
      equations for an ideal gas
  (5) All vibrations are strictly harmonic

freq.    1583.36  E(vib)   ...       0.00
freq.    3689.53  E(vib)   ...       0.00
freq.    3797.06  E(vib)   ...       0.00

------------
INNER ENERGY
------------

The inner energy is: U= E(el) + E(ZPE) + E(vib) + E(rot) + E(trans)
    E(el)   - is the total energy from the electronic structure calculation
              = E(kin-el) + E(nuc-el) + E(el-el) + E(nuc-nuc)
    E(ZPE)  - the the zero temperature vibrational energy from the frequency calculation
    E(vib)  - the the finite temperature correction to E(ZPE) due to population
              of excited vibrational states
    E(rot)  - is the rotational thermal energy
    E(trans)- is the translational thermal energy

Summary of contributions to the inner energy U:
Electronic energy                ...    -76.37689253 Eh
Zero point energy                ...      0.02066287 Eh      12.97 kcal/mol
Thermal vibrational correction   ...      0.00000347 Eh       0.00 kcal/mol
Thermal rotational correction    ...      0.00141627 Eh       0.89 kcal/mol
Thermal translational correction ...      0.00141627 Eh       0.89 kcal/mol
-----------------------------------------------------------------------
Total thermal energy                    -76.35339365 Eh

Summary of corrections to the electronic energy:
(perhaps to be used in another calculation)
Total thermal correction                  0.00283601 Eh       1.78 kcal/mol
Non-thermal (ZPE) correction              0.02066287 Eh      12.97 kcal/mol
-----------------------------------------------------------------------
Total correction                          0.02349888 Eh      14.75 kcal/mol

--------
ENTHALPY
--------

The enthalpy is H = U + kB*T
                kB is Boltzmann's constant
Total free energy                 ...    -76.35339365 Eh
Thermal Enthalpy correction       ...      0.00094421 Eh       0.59 kcal/mol
-----------------------------------------------------------------------
Total Enthalpy                    ...    -76.35244944 Eh

Vibrational entropy computed according to the QRRHO of S. Grimme
Chem.Eur.J. 2012 18 9955

-------
ENTROPY
-------

The entropy contributions are T*S = T*(S(el)+S(vib)+S(rot)+S(trans)
     S(el)   - electronic entropy
     S(vib)  - vibrational entropy
     S(rot)  - rotational entropy
     S(trans)- translational entropy
The entropies will be listed as mutliplied by the temperature to get
units of energy

Electronic entropy                ...      0.00000000 Eh      0.00 kcal/mol
Vibrational entropy               ...      0.00000392 Eh      0.00 kcal/mol
Rotational entropy                ...      0.00462199 Eh      2.90 kcal/mol
Translational entropy             ...      0.01644380 Eh     10.32 kcal/mol
-----------------------------------------------------------------------
Final entropy term                ...      0.02106972 Eh     13.22 kcal/mol

CAUTION: The rotational entropy is not quite correctly treated here
         because it includes a symmetry number that is not yet correctly
         implemented in ORCA!
For a nonlinear molecule the correct rotational entropy is:
    S(rot) = R*(ln(qrot/sn)+1.5)
    R    = 8.31441 J/mol/K = 1.987191683e-3 kcal/mol/K
    qrot =   89.4653568
    sn is the rotational symmetry number. We have assumed 3 here
       if it is different for your molecule then you should correct
       the printed rotational entropy by manually evaluating the equation
       as given above

For convenience we print out the resulting values for sn=1 - 12:
 sn= 1  qrot/sn=      89.4654 T*S(rot)=     3.55 kcal/mol T*S(tot)=    13.87 kcal/mol
 sn= 2  qrot/sn=      44.7327 T*S(rot)=     3.14 kcal/mol T*S(tot)=    13.46 kcal/mol
 sn= 3  qrot/sn=      29.8218 T*S(rot)=     2.90 kcal/mol T*S(tot)=    13.22 kcal/mol
 sn= 4  qrot/sn=      22.3663 T*S(rot)=     2.73 kcal/mol T*S(tot)=    13.05 kcal/mol
 sn= 5  qrot/sn=      17.8931 T*S(rot)=     2.60 kcal/mol T*S(tot)=    12.92 kcal/mol
 sn= 6  qrot/sn=      14.9109 T*S(rot)=     2.49 kcal/mol T*S(tot)=    12.81 kcal/mol
 sn= 7  qrot/sn=      12.7808 T*S(rot)=     2.40 kcal/mol T*S(tot)=    12.72 kcal/mol
 sn= 8  qrot/sn=      11.1832 T*S(rot)=     2.32 kcal/mol T*S(tot)=    12.64 kcal/mol
 sn= 9  qrot/sn=       9.9406 T*S(rot)=     2.25 kcal/mol T*S(tot)=    12.57 kcal/mol
 sn=10  qrot/sn=       8.9465 T*S(rot)=     2.19 kcal/mol T*S(tot)=    12.51 kcal/mol
 sn=11  qrot/sn=       8.1332 T*S(rot)=     2.13 kcal/mol T*S(tot)=    12.45 kcal/mol
 sn=12  qrot/sn=       7.4554 T*S(rot)=     2.08 kcal/mol T*S(tot)=    12.40 kcal/mol

-------------------
GIBBS FREE ENTHALPY
-------------------

The Gibbs free enthalpy is G = H - T*S

Total enthalpy                    ...    -76.35244944 Eh
Total entropy correction          ...     -0.02106972 Eh    -13.22 kcal/mol
-----------------------------------------------------------------------
Final Gibbs free enthalpy         ...    -76.37351916 Eh

For completeness - the Gibbs free enthalpy minus the electronic energy
G-E(el)                           ...      0.00337337 Eh      2.12 kcal/mol

                             ****ORCA TERMINATED NORMALLY****
TOTAL RUN TIME: 0 days 0 hours 0 minutes 5 seconds 797 msec
