                         Program Version 4.0.1.2 - RELEASE -
|  1> # avogadro generated ORCA input file
|  2> # Basic Mode
|  3> #
|  4> ! PBE OPT def2-TZVP
|  5>
|  6> * xyzfile 0 1 H2O.xyz
|  7>
|  8>
|  9>                          ****END OF INPUT****
 Total Charge           Charge          ....    0
 Multiplicity           Mult            ....    1
 Number of Electrons    NEL             ....   10
FINAL SINGLE POINT ENERGY       -76.375688716361
FINAL SINGLE POINT ENERGY       -76.376649601443
FINAL SINGLE POINT ENERGY       -76.376856434965
FINAL SINGLE POINT ENERGY       -76.376891697136
FINAL SINGLE POINT ENERGY       -76.376892495407
                    ***********************HURRAY********************

CARTESIAN COORDINATES (ANGSTROEM)
---------------------------------
  O     -3.599355    1.371946    0.000290
  H     -2.848501    1.176475    0.584022
  H     -3.267404    2.065179   -0.593191

 Multiplicity           Mult            ....    1
 Number of Electrons    NEL             ....   10
 Basis Dimension        Dim             ....   43

ORBITAL ENERGIES
----------------

  NO   OCC          E(Eh)            E(eV)
   0   2.0000     -18.745115      -510.0805
   1   2.0000      -0.919908       -25.0320
   2   2.0000      -0.474473       -12.9111
   3   2.0000      -0.333065        -9.0632
   4   2.0000      -0.255153        -6.9431
   5   0.0000      -0.003764        -0.1024
   6   0.0000       0.071359         1.9418
   7   0.0000       0.324423         8.8280
   8   0.0000       0.377343        10.2680
   9   0.0000       0.397512        10.8168

MULLIKEN ATOMIC CHARGES
-----------------------
   0 O :   -0.622112
   1 H :    0.311056
   2 H :    0.311056
Sum of atomic charges:   -0.0000000

LOEWDIN ATOMIC CHARGES
----------------------
   0 O :   -0.314689
   1 H :    0.157397
   2 H :    0.157292

  Mayer bond orders larger than 0.1
B(  0-O ,  1-H ) :   0.9145 B(  0-O ,  2-H ) :   0.9144

FINAL SINGLE POINT ENERGY       -76.376892532246

DIPOLE MOMENT
-------------
                                X             Y             Z
Electronic contribution:     -0.17324      -0.08044       0.00233
Nuclear contribution   :      0.90128       0.41432      -0.00811
                        -----------------------------------------
Total Dipole Moment    :      0.72805       0.33388      -0.00579
                        -----------------------------------------
Magnitude (a.u.)       :      0.80098
Magnitude (Debye)      :      2.03592

                             ****ORCA TERMINATED NORMALLY****
TOTAL RUN TIME: 0 days 0 hours 0 minutes 16 seconds 519 msec
