                         Program Version 4.0.1.2 - RELEASE -
|  1> # avogadro generated ORCA input file
|  2> # Basic Mode
|  3> #
|  4> ! PBE FREQ def2-TZVP
|  5>
|  6> * xyzfile 0 1 opt.xyz
|  7>
|  8>
|  9>                          ****END OF INPUT****

CARTESIAN COORDINATES (ANGSTROEM)
---------------------------------
  C     -0.369185   -0.415530    0.000002
  H      0.450363   -0.670256    0.682456
  H     -0.038988    0.367789   -0.692715
  H     -0.661749   -1.306235   -0.568407
  H     -1.227331   -0.053508    0.578664

 Total Charge           Charge          ....    0
 Multiplicity           Mult            ....    1
 Number of Electrons    NEL             ....   10
 Basis Dimension        Dim             ....   55

ORBITAL ENERGIES
----------------

  NO   OCC          E(Eh)            E(eV)
   0   2.0000      -9.864716      -268.4326
   1   2.0000      -0.624561       -16.9952
   2   2.0000      -0.345950        -9.4138
   3   2.0000      -0.345854        -9.4112
   4   2.0000      -0.345839        -9.4108
   5   0.0000       0.033223         0.9040
   6   0.0000       0.102624         2.7925
   7   0.0000       0.103364         2.8127
   8   0.0000       0.103711         2.8221
   9   0.0000       0.180896         4.9224

MULLIKEN ATOMIC CHARGES
-----------------------
   0 C :   -0.503958
   1 H :    0.128101
   2 H :    0.128606
   3 H :    0.123061
   4 H :    0.124190
Sum of atomic charges:   -0.0000000

LOEWDIN ATOMIC CHARGES
----------------------
   0 C :   -0.422132
   1 H :    0.105724
   2 H :    0.105713
   3 H :    0.105326
   4 H :    0.105369

  Mayer bond orders larger than 0.1
B(  0-C ,  1-H ) :   0.9754 B(  0-C ,  2-H ) :   0.9755 B(  0-C ,  3-H ) :   0.9763
B(  0-C ,  4-H ) :   0.9767

FINAL SINGLE POINT ENERGY       -40.463126742275

DIPOLE MOMENT
-------------
                                X             Y             Z
Electronic contribution:     -0.00122      -0.00207      -0.00020
Nuclear contribution   :     -0.00068      -0.00006      -0.00001
                        -----------------------------------------
Total Dipole Moment    :     -0.00190      -0.00214      -0.00021
                        -----------------------------------------
Magnitude (a.u.)       :      0.00286
Magnitude (Debye)      :      0.00728

VIBRATIONAL FREQUENCIES
-----------------------

   0:         0.00 cm**-1
   1:         0.00 cm**-1
   2:         0.00 cm**-1
   3:         0.00 cm**-1
   4:         0.00 cm**-1
   5:         0.00 cm**-1
   6:      1285.12 cm**-1
   7:      1285.77 cm**-1
   8:      1286.20 cm**-1
   9:      1508.04 cm**-1
  10:      1508.45 cm**-1
  11:      2973.63 cm**-1
  12:      3087.84 cm**-1
  13:      3088.36 cm**-1
  14:      3089.14 cm**-1

IR SPECTRUM
-----------

 Mode    freq (cm**-1)   T**2         TX         TY         TZ
-------------------------------------------------------------------
   6:      1285.12   16.269422  (  0.645254  -3.094170  -2.505829)
   7:      1285.77   16.297217  (  3.841589   1.162662  -0.433163)
   8:      1286.20   15.869151  (  1.050052  -2.304016   3.075395)
   9:      1508.04    0.003690  (  0.049007   0.014275  -0.032925)
  10:      1508.45    0.003339  (  0.044470   0.036716  -0.003651)
  11:      2973.63    0.004904  ( -0.041909  -0.055928  -0.004468)
  12:      3087.84   19.955409  (  1.646183   2.363062  -3.414884)
  13:      3088.36   19.948159  (  4.002690  -1.885194   0.610472)
  14:      3089.14   19.787962  ( -1.118557  -3.279171  -2.789951)

--------------------------
THERMOCHEMISTRY AT 298.15K
--------------------------

Temperature         ... 298.15 K
Pressure            ... 1.00 atm
Total Mass          ... 16.04 AMU

Throughout the following assumptions are being made:
  (1) The electronic state is orbitally nondegenerate
  (2) There are no thermally accessible electronically excited states
  (3) Hindered rotations indicated by low frequency modes are not
      treated as such but are treated as vibrations and this may
      cause some error
  (4) All equations used are the standard statistical mechanics
      equations for an ideal gas
  (5) All vibrations are strictly harmonic

freq.    1285.12  E(vib)   ...       0.01
freq.    1285.77  E(vib)   ...       0.01
freq.    1286.20  E(vib)   ...       0.01
freq.    1508.04  E(vib)   ...       0.00
freq.    1508.45  E(vib)   ...       0.00
freq.    2973.63  E(vib)   ...       0.00
freq.    3087.84  E(vib)   ...       0.00
freq.    3088.36  E(vib)   ...       0.00
freq.    3089.14  E(vib)   ...       0.00

------------
INNER ENERGY
------------

The inner energy is: U= E(el) + E(ZPE) + E(vib) + E(rot) + E(trans)
    E(el)   - is the total energy from the electronic structure calculation
              = E(kin-el) + E(nuc-el) + E(el-el) + E(nuc-nuc)
    E(ZPE)  - the the zero temperature vibrational energy from the frequency calculation
    E(vib)  - the the finite temperature correction to E(ZPE) due to population
              of excited vibrational states
    E(rot)  - is the rotational thermal energy
    E(trans)- is the translational thermal energy

Summary of contributions to the inner energy U:
Electronic energy                ...    -40.46312674 Eh
Zero point energy                ...      0.04354163 Eh      27.32 kcal/mol
Thermal vibrational correction   ...      0.00004511 Eh       0.03 kcal/mol
Thermal rotational correction    ...      0.00141627 Eh       0.89 kcal/mol
Thermal translational correction ...      0.00141627 Eh       0.89 kcal/mol
-----------------------------------------------------------------------
Total thermal energy                    -40.41670747 Eh

Summary of corrections to the electronic energy:
(perhaps to be used in another calculation)
Total thermal correction                  0.00287765 Eh       1.81 kcal/mol
Non-thermal (ZPE) correction              0.04354163 Eh      27.32 kcal/mol
-----------------------------------------------------------------------
Total correction                          0.04641928 Eh      29.13 kcal/mol

--------
ENTHALPY
--------

The enthalpy is H = U + kB*T
                kB is Boltzmann's constant
Total free energy                 ...    -40.41670747 Eh
Thermal Enthalpy correction       ...      0.00094421 Eh       0.59 kcal/mol
-----------------------------------------------------------------------
Total Enthalpy                    ...    -40.41576326 Eh

Vibrational entropy computed according to the QRRHO of S. Grimme
Chem.Eur.J. 2012 18 9955

-------
ENTROPY
-------

The entropy contributions are T*S = T*(S(el)+S(vib)+S(rot)+S(trans)
     S(el)   - electronic entropy
     S(vib)  - vibrational entropy
     S(rot)  - rotational entropy
     S(trans)- translational entropy
The entropies will be listed as mutliplied by the temperature to get
units of energy

Electronic entropy                ...      0.00000000 Eh      0.00 kcal/mol
Vibrational entropy               ...      0.00005216 Eh      0.03 kcal/mol
Rotational entropy                ...      0.00613414 Eh      3.85 kcal/mol
Translational entropy             ...      0.01627961 Eh     10.22 kcal/mol
-----------------------------------------------------------------------
Final entropy term                ...      0.02246591 Eh     14.10 kcal/mol

CAUTION: The rotational entropy is not quite correctly treated here
         because it includes a symmetry number that is not yet correctly
         implemented in ORCA!
For a nonlinear molecule the correct rotational entropy is:
    S(rot) = R*(ln(qrot/sn)+1.5)
    R    = 8.31441 J/mol/K = 1.987191683e-3 kcal/mol/K
    qrot =  443.8120421
    sn is the rotational symmetry number. We have assumed 3 here
       if it is different for your molecule then you should correct
       the printed rotational entropy by manually evaluating the equation
       as given above

For convenience we print out the resulting values for sn=1 - 12:
 sn= 1  qrot/sn=     443.8120 T*S(rot)=     4.50 kcal/mol T*S(tot)=    14.75 kcal/mol
 sn= 2  qrot/sn=     221.9060 T*S(rot)=     4.09 kcal/mol T*S(tot)=    14.34 kcal/mol
 sn= 3  qrot/sn=     147.9373 T*S(rot)=     3.85 kcal/mol T*S(tot)=    14.10 kcal/mol
 sn= 4  qrot/sn=     110.9530 T*S(rot)=     3.68 kcal/mol T*S(tot)=    13.93 kcal/mol
 sn= 5  qrot/sn=      88.7624 T*S(rot)=     3.55 kcal/mol T*S(tot)=    13.79 kcal/mol
 sn= 6  qrot/sn=      73.9687 T*S(rot)=     3.44 kcal/mol T*S(tot)=    13.69 kcal/mol
 sn= 7  qrot/sn=      63.4017 T*S(rot)=     3.35 kcal/mol T*S(tot)=    13.60 kcal/mol
 sn= 8  qrot/sn=      55.4765 T*S(rot)=     3.27 kcal/mol T*S(tot)=    13.52 kcal/mol
 sn= 9  qrot/sn=      49.3124 T*S(rot)=     3.20 kcal/mol T*S(tot)=    13.45 kcal/mol
 sn=10  qrot/sn=      44.3812 T*S(rot)=     3.14 kcal/mol T*S(tot)=    13.38 kcal/mol
 sn=11  qrot/sn=      40.3465 T*S(rot)=     3.08 kcal/mol T*S(tot)=    13.33 kcal/mol
 sn=12  qrot/sn=      36.9843 T*S(rot)=     3.03 kcal/mol T*S(tot)=    13.28 kcal/mol

-------------------
GIBBS FREE ENTHALPY
-------------------

The Gibbs free enthalpy is G = H - T*S

Total enthalpy                    ...    -40.41576326 Eh
Total entropy correction          ...     -0.02246591 Eh    -14.10 kcal/mol
-----------------------------------------------------------------------
Final Gibbs free enthalpy         ...    -40.43822917 Eh

For completeness - the Gibbs free enthalpy minus the electronic energy
G-E(el)                           ...      0.02489757 Eh     15.62 kcal/mol

                             ****ORCA TERMINATED NORMALLY****
TOTAL RUN TIME: 0 days 0 hours 0 minutes 17 seconds 767 msec
