                         Program Version 4.0.1.2 - RELEASE -
|  1> # avogadro generated ORCA input file
|  2> # Basic Mode
|  3> #
|  4> ! PBE FREQ def2-TZVP
|  5>
|  6> * xyzfile 0 1 CH4.xyz
|  7>
|  8>
|  9>                          ****END OF INPUT****

CARTESIAN COORDINATES (ANGSTROEM)
---------------------------------
  C     -0.369380   -0.415550   -0.000000
  H      0.430620   -0.663920    0.665740
  H     -0.046780    0.348780   -0.675740
  H     -0.654670   -1.284890   -0.554750
  H     -1.206680   -0.062160    0.564750

 Total Charge           Charge          ....    0
 Multiplicity           Mult            ....    1
 Number of Electrons    NEL             ....   10
 Basis Dimension        Dim             ....   55

ORBITAL ENERGIES
----------------

  NO   OCC          E(Eh)            E(eV)
   0   2.0000      -9.853341      -268.1230
   1   2.0000      -0.631997       -17.1975
   2   2.0000      -0.349768        -9.5177
   3   2.0000      -0.349702        -9.5159
   4   2.0000      -0.349575        -9.5124
   5   0.0000       0.036951         1.0055
   6   0.0000       0.108612         2.9555
   7   0.0000       0.109322         2.9748
   8   0.0000       0.109719         2.9856
   9   0.0000       0.180027         4.8988

MULLIKEN ATOMIC CHARGES
-----------------------
   0 C :   -0.501292
   1 H :    0.127798
   2 H :    0.128158
   3 H :    0.122134
   4 H :    0.123202
Sum of atomic charges:   -0.0000000

LOEWDIN ATOMIC CHARGES
----------------------
   0 C :   -0.405062
   1 H :    0.101493
   2 H :    0.101449
   3 H :    0.101055
   4 H :    0.101065

  Mayer bond orders larger than 0.1
B(  0-C ,  1-H ) :   0.9769 B(  0-C ,  2-H ) :   0.9772 B(  0-C ,  3-H ) :   0.9779
B(  0-C ,  4-H ) :   0.9785

FINAL SINGLE POINT ENERGY       -40.461356880467

DIPOLE MOMENT
-------------
                                X             Y             Z
Electronic contribution:     -0.00181      -0.00194      -0.00019
Nuclear contribution   :      0.00001       0.00001       0.00000
                        -----------------------------------------
Total Dipole Moment    :     -0.00180      -0.00193      -0.00019
                        -----------------------------------------
Magnitude (a.u.)       :      0.00265
Magnitude (Debye)      :      0.00673

VIBRATIONAL FREQUENCIES
-----------------------

   0:         0.00 cm**-1
   1:         0.00 cm**-1
   2:         0.00 cm**-1
   3:         0.00 cm**-1
   4:         0.00 cm**-1
   5:         0.00 cm**-1
   6:      1220.40 cm**-1
   7:      1221.23 cm**-1
   8:      1221.39 cm**-1
   9:      1483.53 cm**-1
  10:      1484.05 cm**-1
  11:      3198.13 cm**-1
  12:      3331.83 cm**-1
  13:      3332.03 cm**-1
  14:      3332.13 cm**-1

IR SPECTRUM
-----------

 Mode    freq (cm**-1)   T**2         TX         TY         TZ
-------------------------------------------------------------------
   6:      1220.40   19.226400  ( -0.243455   3.205869   2.981532)
   7:      1221.23   19.387740  (  4.380063   0.437410  -0.107073)
   8:      1221.39   18.904874  ( -0.361121   2.972378  -3.152686)
   9:      1483.53    0.003816  ( -0.043966  -0.016784   0.040015)
  10:      1484.05    0.004242  (  0.052504   0.038191  -0.005211)
  11:      3198.13    0.002620  (  0.039657   0.032166   0.003497)
  12:      3331.83   17.385347  (  1.273519  -1.905305   3.483290)
  13:      3332.03   17.478841  (  3.924015   1.218974  -0.771394)
  14:      3332.13   17.267667  (  0.667887  -3.502394  -2.134205)

--------------------------
THERMOCHEMISTRY AT 298.15K
--------------------------

Temperature         ... 298.15 K
Pressure            ... 1.00 atm
Total Mass          ... 16.04 AMU

Throughout the following assumptions are being made:
  (1) The electronic state is orbitally nondegenerate
  (2) There are no thermally accessible electronically excited states
  (3) Hindered rotations indicated by low frequency modes are not
      treated as such but are treated as vibrations and this may
      cause some error
  (4) All equations used are the standard statistical mechanics
      equations for an ideal gas
  (5) All vibrations are strictly harmonic

freq.    1220.40  E(vib)   ...       0.01
freq.    1221.23  E(vib)   ...       0.01
freq.    1221.39  E(vib)   ...       0.01
freq.    1483.53  E(vib)   ...       0.00
freq.    1484.05  E(vib)   ...       0.00
freq.    3198.13  E(vib)   ...       0.00
freq.    3331.83  E(vib)   ...       0.00
freq.    3332.03  E(vib)   ...       0.00
freq.    3332.13  E(vib)   ...       0.00

------------
INNER ENERGY
------------

The inner energy is: U= E(el) + E(ZPE) + E(vib) + E(rot) + E(trans)
    E(el)   - is the total energy from the electronic structure calculation
              = E(kin-el) + E(nuc-el) + E(el-el) + E(nuc-nuc)
    E(ZPE)  - the the zero temperature vibrational energy from the frequency calculation
    E(vib)  - the the finite temperature correction to E(ZPE) due to population
              of excited vibrational states
    E(rot)  - is the rotational thermal energy
    E(trans)- is the translational thermal energy

Summary of contributions to the inner energy U:
Electronic energy                ...    -40.46135688 Eh
Zero point energy                ...      0.04516407 Eh      28.34 kcal/mol
Thermal vibrational correction   ...      0.00005674 Eh       0.04 kcal/mol
Thermal rotational correction    ...      0.00141627 Eh       0.89 kcal/mol
Thermal translational correction ...      0.00141627 Eh       0.89 kcal/mol
-----------------------------------------------------------------------
Total thermal energy                    -40.41330354 Eh

Summary of corrections to the electronic energy:
(perhaps to be used in another calculation)
Total thermal correction                  0.00288928 Eh       1.81 kcal/mol
Non-thermal (ZPE) correction              0.04516407 Eh      28.34 kcal/mol
-----------------------------------------------------------------------
Total correction                          0.04805334 Eh      30.15 kcal/mol

--------
ENTHALPY
--------

The enthalpy is H = U + kB*T
                kB is Boltzmann's constant
Total free energy                 ...    -40.41330354 Eh
Thermal Enthalpy correction       ...      0.00094421 Eh       0.59 kcal/mol
-----------------------------------------------------------------------
Total Enthalpy                    ...    -40.41235933 Eh

Vibrational entropy computed according to the QRRHO of S. Grimme
Chem.Eur.J. 2012 18 9955

-------
ENTROPY
-------

The entropy contributions are T*S = T*(S(el)+S(vib)+S(rot)+S(trans)
     S(el)   - electronic entropy
     S(vib)  - vibrational entropy
     S(rot)  - rotational entropy
     S(trans)- translational entropy
The entropies will be listed as mutliplied by the temperature to get
units of energy

Electronic entropy                ...      0.00000000 Eh      0.00 kcal/mol
Vibrational entropy               ...      0.00006606 Eh      0.04 kcal/mol
Rotational entropy                ...      0.00606488 Eh      3.81 kcal/mol
Translational entropy             ...      0.01627961 Eh     10.22 kcal/mol
-----------------------------------------------------------------------
Final entropy term                ...      0.02241055 Eh     14.06 kcal/mol

CAUTION: The rotational entropy is not quite correctly treated here
         because it includes a symmetry number that is not yet correctly
         implemented in ORCA!
For a nonlinear molecule the correct rotational entropy is:
    S(rot) = R*(ln(qrot/sn)+1.5)
    R    = 8.31441 J/mol/K = 1.987191683e-3 kcal/mol/K
    qrot =  412.4188996
    sn is the rotational symmetry number. We have assumed 3 here
       if it is different for your molecule then you should correct
       the printed rotational entropy by manually evaluating the equation
       as given above

For convenience we print out the resulting values for sn=1 - 12:
 sn= 1  qrot/sn=     412.4189 T*S(rot)=     4.46 kcal/mol T*S(tot)=    14.71 kcal/mol
 sn= 2  qrot/sn=     206.2094 T*S(rot)=     4.05 kcal/mol T*S(tot)=    14.30 kcal/mol
 sn= 3  qrot/sn=     137.4730 T*S(rot)=     3.81 kcal/mol T*S(tot)=    14.06 kcal/mol
 sn= 4  qrot/sn=     103.1047 T*S(rot)=     3.64 kcal/mol T*S(tot)=    13.89 kcal/mol
 sn= 5  qrot/sn=      82.4838 T*S(rot)=     3.50 kcal/mol T*S(tot)=    13.76 kcal/mol
 sn= 6  qrot/sn=      68.7365 T*S(rot)=     3.40 kcal/mol T*S(tot)=    13.65 kcal/mol
 sn= 7  qrot/sn=      58.9170 T*S(rot)=     3.30 kcal/mol T*S(tot)=    13.56 kcal/mol
 sn= 8  qrot/sn=      51.5524 T*S(rot)=     3.22 kcal/mol T*S(tot)=    13.48 kcal/mol
 sn= 9  qrot/sn=      45.8243 T*S(rot)=     3.15 kcal/mol T*S(tot)=    13.41 kcal/mol
 sn=10  qrot/sn=      41.2419 T*S(rot)=     3.09 kcal/mol T*S(tot)=    13.35 kcal/mol
 sn=11  qrot/sn=      37.4926 T*S(rot)=     3.04 kcal/mol T*S(tot)=    13.29 kcal/mol
 sn=12  qrot/sn=      34.3682 T*S(rot)=     2.98 kcal/mol T*S(tot)=    13.24 kcal/mol

-------------------
GIBBS FREE ENTHALPY
-------------------

The Gibbs free enthalpy is G = H - T*S

Total enthalpy                    ...    -40.41235933 Eh
Total entropy correction          ...     -0.02241055 Eh    -14.06 kcal/mol
-----------------------------------------------------------------------
Final Gibbs free enthalpy         ...    -40.43476987 Eh

For completeness - the Gibbs free enthalpy minus the electronic energy
G-E(el)                           ...      0.02658701 Eh     16.68 kcal/mol

                             ****ORCA TERMINATED NORMALLY****
TOTAL RUN TIME: 0 days 0 hours 0 minutes 16 seconds 575 msec
