                         Program Version 4.0.1.2 - RELEASE -
|  1> # avogadro generated ORCA input file
|  2> # Basic Mode
|  3> #
|  4> ! PBE OPT def2-TZVP
|  5>
|  6> * xyzfile 0 1 CH4.xyz
|  7>
|  8>
|  9>                          ****END OF INPUT****
 Total Charge           Charge          ....    0
 Multiplicity           Mult            ....    1
 Number of Electrons    NEL             ....   10
FINAL SINGLE POINT ENERGY       -40.461356882318
FINAL SINGLE POINT ENERGY       -40.463118315766
FINAL SINGLE POINT ENERGY       -40.463126729031
                    ***********************HURRAY********************

CARTESIAN COORDINATES (ANGSTROEM)
---------------------------------
  C     -0.369185   -0.415530    0.000002
  H      0.450363   -0.670256    0.682456
  H     -0.038988    0.367789   -0.692715
  H     -0.661749   -1.306235   -0.568407
  H     -1.227331   -0.053508    0.578664

 Multiplicity           Mult            ....    1
 Number of Electrons    NEL             ....   10
 Basis Dimension        Dim             ....   55

ORBITAL ENERGIES
----------------

  NO   OCC          E(Eh)            E(eV)
   0   2.0000      -9.864691      -268.4319
   1   2.0000      -0.624562       -16.9952
   2   2.0000      -0.345952        -9.4138
   3   2.0000      -0.345856        -9.4112
   4   2.0000      -0.345842        -9.4108
   5   0.0000       0.033220         0.9040
   6   0.0000       0.102621         2.7925
   7   0.0000       0.103361         2.8126
   8   0.0000       0.103708         2.8220
   9   0.0000       0.180894         4.9224

MULLIKEN ATOMIC CHARGES
-----------------------
   0 C :   -0.503943
   1 H :    0.128097
   2 H :    0.128602
   3 H :    0.123056
   4 H :    0.124187
Sum of atomic charges:   -0.0000000

LOEWDIN ATOMIC CHARGES
----------------------
   0 C :   -0.422149
   1 H :    0.105728
   2 H :    0.105718
   3 H :    0.105330
   4 H :    0.105374

  Mayer bond orders larger than 0.1
B(  0-C ,  1-H ) :   0.9754 B(  0-C ,  2-H ) :   0.9755 B(  0-C ,  3-H ) :   0.9763
B(  0-C ,  4-H ) :   0.9767

FINAL SINGLE POINT ENERGY       -40.463126743089

DIPOLE MOMENT
-------------
                                X             Y             Z
Electronic contribution:     -0.00122      -0.00207      -0.00020
Nuclear contribution   :     -0.00068      -0.00006      -0.00001
                        -----------------------------------------
Total Dipole Moment    :     -0.00190      -0.00214      -0.00021
                        -----------------------------------------
Magnitude (a.u.)       :      0.00286
Magnitude (Debye)      :      0.00728

                             ****ORCA TERMINATED NORMALLY****
TOTAL RUN TIME: 0 days 0 hours 0 minutes 37 seconds 411 msec
