                         Program Version 4.0.1.2 - RELEASE -
|  1> # avogadro generated ORCA input file
|  2> # Basic Mode
|  3> #
|  4> ! PBE FREQ def2-TZVP
|  5>
|  6> * xyzfile 0 1 BF3.xyz
|  7>
|  8>
|  9>                          ****END OF INPUT****

CARTESIAN COORDINATES (ANGSTROEM)
---------------------------------
  B     -3.185880    1.031180   -0.000000
  F     -2.189520    1.356070    0.520200
  F     -3.736020    0.243930    0.668200
  F     -3.872820    1.966990   -0.145900

 Total Charge           Charge          ....    0
 Multiplicity           Mult            ....    1
 Number of Electrons    NEL             ....   32
 Basis Dimension        Dim             ....  124

ORBITAL ENERGIES
----------------

  NO   OCC          E(Eh)            E(eV)
   0   2.0000     -24.260001      -660.1482
   1   2.0000     -24.259965      -660.1472
   2   2.0000     -24.259924      -660.1461
   3   2.0000      -6.599499      -179.5815
   4   2.0000      -1.232136       -33.5281
   5   2.0000      -1.142528       -31.0898
   6   2.0000      -1.142455       -31.0878
   7   2.0000      -0.548012       -14.9122
   8   2.0000      -0.525670       -14.3042
   9   2.0000      -0.525547       -14.3009
  10   2.0000      -0.512224       -13.9383
  11   2.0000      -0.419193       -11.4068
  12   2.0000      -0.419112       -11.4046
  13   2.0000      -0.365704        -9.9513
  14   2.0000      -0.365335        -9.9413
  15   2.0000      -0.328143        -8.9292
  16   0.0000      -0.086772        -2.3612
  17   0.0000       0.073176         1.9912
  18   0.0000       0.079522         2.1639
  19   0.0000       0.079842         2.1726
  20   0.0000       0.093022         2.5313

MULLIKEN ATOMIC CHARGES
-----------------------
   0 B :    0.146318
   1 F :   -0.048846
   2 F :   -0.047820
   3 F :   -0.049652
Sum of atomic charges:    0.0000000

LOEWDIN ATOMIC CHARGES
----------------------
   0 B :   -1.735321
   1 F :    0.578497
   2 F :    0.578494
   3 F :    0.578330

  Mayer bond orders larger than 0.1
B(  0-B ,  1-F ) :   1.4366 B(  0-B ,  2-F ) :   1.4369 B(  0-B ,  3-F ) :   1.4342

FINAL SINGLE POINT ENERGY      -324.198427814025

DIPOLE MOMENT
-------------
                                X             Y             Z
Electronic contribution:      0.14414      -0.28345      -0.62390
Nuclear contribution   :     -0.01543       0.03035       0.06683
                        -----------------------------------------
Total Dipole Moment    :      0.12871      -0.25310      -0.55707
                        -----------------------------------------
Magnitude (a.u.)       :      0.62526
Magnitude (Debye)      :      1.58929

VIBRATIONAL FREQUENCIES
-----------------------

   0:         0.00 cm**-1
   1:         0.00 cm**-1
   2:         0.00 cm**-1
   3:         0.00 cm**-1
   4:         0.00 cm**-1
   5:         0.00 cm**-1
   6:       340.58 cm**-1
   7:       534.79 cm**-1
   8:       535.82 cm**-1
   9:      1589.74 cm**-1
  10:      2161.54 cm**-1
  11:      2161.70 cm**-1

IR SPECTRUM
-----------

 Mode    freq (cm**-1)   T**2         TX         TY         TZ
-------------------------------------------------------------------
   6:       340.58   65.042152  (  1.648914  -3.229536  -7.203702)
   7:       534.79   24.833248  ( -3.301633   3.084384  -2.102152)
   8:       535.82   24.845920  (  3.595402   3.384543  -0.681085)
   9:      1589.74   20.641129  (  0.939163  -1.842345  -4.045351)
  10:      2161.54  369.694086  (  6.441243 -15.890509   8.700356)
  11:      2161.70  369.751784  ( 17.680549   7.531579   0.652142)

--------------------------
THERMOCHEMISTRY AT 298.15K
--------------------------

Temperature         ... 298.15 K
Pressure            ... 1.00 atm
Total Mass          ... 67.80 AMU

Throughout the following assumptions are being made:
  (1) The electronic state is orbitally nondegenerate
  (2) There are no thermally accessible electronically excited states
  (3) Hindered rotations indicated by low frequency modes are not
      treated as such but are treated as vibrations and this may
      cause some error
  (4) All equations used are the standard statistical mechanics
      equations for an ideal gas
  (5) All vibrations are strictly harmonic

freq.     340.58  E(vib)   ...       0.23
freq.     534.79  E(vib)   ...       0.13
freq.     535.82  E(vib)   ...       0.12
freq.    1589.74  E(vib)   ...       0.00
freq.    2161.54  E(vib)   ...       0.00
freq.    2161.70  E(vib)   ...       0.00

------------
INNER ENERGY
------------

The inner energy is: U= E(el) + E(ZPE) + E(vib) + E(rot) + E(trans)
    E(el)   - is the total energy from the electronic structure calculation
              = E(kin-el) + E(nuc-el) + E(el-el) + E(nuc-nuc)
    E(ZPE)  - the the zero temperature vibrational energy from the frequency calculation
    E(vib)  - the the finite temperature correction to E(ZPE) due to population
              of excited vibrational states
    E(rot)  - is the rotational thermal energy
    E(trans)- is the translational thermal energy

Summary of contributions to the inner energy U:
Electronic energy                ...   -324.19842781 Eh
Zero point energy                ...      0.01668569 Eh      10.47 kcal/mol
Thermal vibrational correction   ...      0.00077439 Eh       0.49 kcal/mol
Thermal rotational correction    ...      0.00141627 Eh       0.89 kcal/mol
Thermal translational correction ...      0.00141627 Eh       0.89 kcal/mol
-----------------------------------------------------------------------
Total thermal energy                   -324.17813520 Eh

Summary of corrections to the electronic energy:
(perhaps to be used in another calculation)
Total thermal correction                  0.00360693 Eh       2.26 kcal/mol
Non-thermal (ZPE) correction              0.01668569 Eh      10.47 kcal/mol
-----------------------------------------------------------------------
Total correction                          0.02029261 Eh      12.73 kcal/mol

--------
ENTHALPY
--------

The enthalpy is H = U + kB*T
                kB is Boltzmann's constant
Total free energy                 ...   -324.17813520 Eh
Thermal Enthalpy correction       ...      0.00094421 Eh       0.59 kcal/mol
-----------------------------------------------------------------------
Total Enthalpy                    ...   -324.17719099 Eh

Vibrational entropy computed according to the QRRHO of S. Grimme
Chem.Eur.J. 2012 18 9955

-------
ENTROPY
-------

The entropy contributions are T*S = T*(S(el)+S(vib)+S(rot)+S(trans)
     S(el)   - electronic entropy
     S(vib)  - vibrational entropy
     S(rot)  - rotational entropy
     S(trans)- translational entropy
The entropies will be listed as mutliplied by the temperature to get
units of energy

Electronic entropy                ...      0.00000000 Eh      0.00 kcal/mol
Vibrational entropy               ...      0.00112820 Eh      0.71 kcal/mol
Rotational entropy                ...      0.00985910 Eh      6.19 kcal/mol
Translational entropy             ...      0.01832095 Eh     11.50 kcal/mol
-----------------------------------------------------------------------
Final entropy term                ...      0.02930825 Eh     18.39 kcal/mol

CAUTION: The rotational entropy is not quite correctly treated here
         because it includes a symmetry number that is not yet correctly
         implemented in ORCA!
For a nonlinear molecule the correct rotational entropy is:
    S(rot) = R*(ln(qrot/sn)+1.5)
    R    = 8.31441 J/mol/K = 1.987191683e-3 kcal/mol/K
    qrot = 22938.4908682
    sn is the rotational symmetry number. We have assumed 3 here
       if it is different for your molecule then you should correct
       the printed rotational entropy by manually evaluating the equation
       as given above

For convenience we print out the resulting values for sn=1 - 12:
 sn= 1  qrot/sn=   22938.4909 T*S(rot)=     6.84 kcal/mol T*S(tot)=    19.04 kcal/mol
 sn= 2  qrot/sn=   11469.2454 T*S(rot)=     6.43 kcal/mol T*S(tot)=    18.63 kcal/mol
 sn= 3  qrot/sn=    7646.1636 T*S(rot)=     6.19 kcal/mol T*S(tot)=    18.39 kcal/mol
 sn= 4  qrot/sn=    5734.6227 T*S(rot)=     6.02 kcal/mol T*S(tot)=    18.22 kcal/mol
 sn= 5  qrot/sn=    4587.6982 T*S(rot)=     5.88 kcal/mol T*S(tot)=    18.09 kcal/mol
 sn= 6  qrot/sn=    3823.0818 T*S(rot)=     5.78 kcal/mol T*S(tot)=    17.98 kcal/mol
 sn= 7  qrot/sn=    3276.9273 T*S(rot)=     5.68 kcal/mol T*S(tot)=    17.89 kcal/mol
 sn= 8  qrot/sn=    2867.3114 T*S(rot)=     5.61 kcal/mol T*S(tot)=    17.81 kcal/mol
 sn= 9  qrot/sn=    2548.7212 T*S(rot)=     5.54 kcal/mol T*S(tot)=    17.74 kcal/mol
 sn=10  qrot/sn=    2293.8491 T*S(rot)=     5.47 kcal/mol T*S(tot)=    17.68 kcal/mol
 sn=11  qrot/sn=    2085.3174 T*S(rot)=     5.42 kcal/mol T*S(tot)=    17.62 kcal/mol
 sn=12  qrot/sn=    1911.5409 T*S(rot)=     5.37 kcal/mol T*S(tot)=    17.57 kcal/mol

-------------------
GIBBS FREE ENTHALPY
-------------------

The Gibbs free enthalpy is G = H - T*S

Total enthalpy                    ...   -324.17719099 Eh
Total entropy correction          ...     -0.02930825 Eh    -18.39 kcal/mol
-----------------------------------------------------------------------
Final Gibbs free enthalpy         ...   -324.20649924 Eh

For completeness - the Gibbs free enthalpy minus the electronic energy
G-E(el)                           ...     -0.00807143 Eh     -5.06 kcal/mol

                             ****ORCA TERMINATED NORMALLY****
TOTAL RUN TIME: 0 days 0 hours 0 minutes 46 seconds 657 msec
