                         Program Version 4.0.1.2 - RELEASE -
|  1> # avogadro generated ORCA input file
|  2> # Basic Mode
|  3> #
|  4> ! PBE OPT def2-TZVP
|  5>
|  6> * xyzfile 0 1 BF3.xyz
|  7>
|  8>
|  9>                          ****END OF INPUT****
 Total Charge           Charge          ....    0
 Multiplicity           Mult            ....    1
 Number of Electrons    NEL             ....   32
FINAL SINGLE POINT ENERGY      -324.198427823679
FINAL SINGLE POINT ENERGY      -324.314720730861
FINAL SINGLE POINT ENERGY      -324.361401575816
FINAL SINGLE POINT ENERGY      -324.380381164405
FINAL SINGLE POINT ENERGY      -324.385018180689
FINAL SINGLE POINT ENERGY      -324.385381498825
FINAL SINGLE POINT ENERGY      -324.385414747330
FINAL SINGLE POINT ENERGY      -324.385424177913
FINAL SINGLE POINT ENERGY      -324.385424925848
                    ***********************HURRAY********************

CARTESIAN COORDINATES (ANGSTROEM)
---------------------------------
  B     -3.245947    1.149466    0.260522
  F     -1.952975    1.351679    0.471076
  F     -3.810467    0.013149    0.644589
  F     -3.974851    2.083875   -0.333687

 Multiplicity           Mult            ....    1
 Number of Electrons    NEL             ....   32
 Basis Dimension        Dim             ....  124

ORBITAL ENERGIES
----------------

  NO   OCC          E(Eh)            E(eV)
   0   2.0000     -24.294294      -661.0813
   1   2.0000     -24.294269      -661.0807
   2   2.0000     -24.294255      -661.0803
   3   2.0000      -6.663475      -181.3224
   4   2.0000      -1.167862       -31.7791
   5   2.0000      -1.132121       -30.8066
   6   2.0000      -1.132032       -30.8042
   7   2.0000      -0.545246       -14.8369
   8   2.0000      -0.508395       -13.8341
   9   2.0000      -0.508376       -13.8336
  10   2.0000      -0.471961       -12.8427
  11   2.0000      -0.407412       -11.0862
  12   2.0000      -0.407380       -11.0854
  13   2.0000      -0.401571       -10.9273
  14   2.0000      -0.401524       -10.9260
  15   2.0000      -0.367838       -10.0094
  16   0.0000      -0.019236        -0.5234
  17   0.0000      -0.014903        -0.4055
  18   0.0000       0.085885         2.3370
  19   0.0000       0.086193         2.3454
  20   0.0000       0.102230         2.7818

MULLIKEN ATOMIC CHARGES
-----------------------
   0 B :    0.572586
   1 F :   -0.191645
   2 F :   -0.190902
   3 F :   -0.190039
Sum of atomic charges:   -0.0000000

LOEWDIN ATOMIC CHARGES
----------------------
   0 B :   -1.081838
   1 F :    0.360797
   2 F :    0.360530
   3 F :    0.360511

  Mayer bond orders larger than 0.1
B(  0-B ,  1-F ) :   1.2666 B(  0-B ,  2-F ) :   1.2685 B(  0-B ,  3-F ) :   1.2695

FINAL SINGLE POINT ENERGY      -324.385425220438

DIPOLE MOMENT
-------------
                                X             Y             Z
Electronic contribution:      0.00057      -0.00030      -0.00031
Nuclear contribution   :     -0.00003       0.00002       0.00003
                        -----------------------------------------
Total Dipole Moment    :      0.00054      -0.00028      -0.00028
                        -----------------------------------------
Magnitude (a.u.)       :      0.00067
Magnitude (Debye)      :      0.00171

                             ****ORCA TERMINATED NORMALLY****
TOTAL RUN TIME: 0 days 0 hours 1 minutes 49 seconds 601 msec
