                         Program Version 4.0.1.2 - RELEASE -
|  1> # avogadro generated ORCA input file
|  2> # Basic Mode
|  3> #
|  4> ! PBE FREQ def2-TZVP
|  5>
|  6> * xyzfile 0 1 opt.xyz
|  7>
|  8>
|  9>                          ****END OF INPUT****

CARTESIAN COORDINATES (ANGSTROEM)
---------------------------------
  C     -0.037553   -0.009112   -0.019190
  C     -1.391178    0.369968   -0.585964
  O     -2.008895   -0.822105   -1.088633
  H     -2.876862   -0.578393   -1.450442
  H     -2.015962    0.831958    0.202979
  H     -1.267469    1.116614   -1.394474
  H      0.476276    0.878666    0.376872
  H     -0.151572   -0.738062    0.795748
  H      0.595023   -0.458241   -0.798162

 Total Charge           Charge          ....    0
 Multiplicity           Mult            ....    1
 Number of Electrons    NEL             ....   26
 Basis Dimension        Dim             ....  129

ORBITAL ENERGIES
----------------

  NO   OCC          E(Eh)            E(eV)
   0   2.0000     -18.745460      -510.0899
   1   2.0000      -9.927022      -270.1280
   2   2.0000      -9.871460      -268.6161
   3   2.0000      -0.927564       -25.2403
   4   2.0000      -0.677895       -18.4465
   5   2.0000      -0.546737       -14.8775
   6   2.0000      -0.463981       -12.6256
   7   2.0000      -0.412554       -11.2262
   8   2.0000      -0.356181        -9.6922
   9   2.0000      -0.337755        -9.1908
  10   2.0000      -0.318181        -8.6582
  11   2.0000      -0.288869        -7.8605
  12   2.0000      -0.224343        -6.1047
  13   0.0000       0.007955         0.2165
  14   0.0000       0.038287         1.0418
  15   0.0000       0.071749         1.9524
  16   0.0000       0.078899         2.1470
  17   0.0000       0.093787         2.5521

MULLIKEN ATOMIC CHARGES
-----------------------
   0 C :   -0.324174
   1 C :   -0.081540
   2 O :   -0.421203
   3 H :    0.293197
   4 H :    0.090098
   5 H :    0.095615
   6 H :    0.106763
   7 H :    0.121766
   8 H :    0.119479
Sum of atomic charges:    0.0000000

LOEWDIN ATOMIC CHARGES
----------------------
   0 C :   -0.326649
   1 C :   -0.393965
   2 O :   -0.049051
   3 H :    0.169498
   4 H :    0.112597
   5 H :    0.113077
   6 H :    0.125189
   7 H :    0.124585
   8 H :    0.124719

  Mayer bond orders larger than 0.1
B(  0-C ,  1-C ) :   1.0191 B(  0-C ,  6-H ) :   0.9526 B(  0-C ,  7-H ) :   0.9637
B(  0-C ,  8-H ) :   0.9616 B(  1-C ,  2-O ) :   1.0781 B(  1-C ,  4-H ) :   0.9474
B(  1-C ,  5-H ) :   0.9478 B(  2-O ,  3-H ) :   0.9014

FINAL SINGLE POINT ENERGY      -154.905536443743

DIPOLE MOMENT
-------------
                                X             Y             Z
Electronic contribution:     -2.00156      -1.38485      -1.18596
Nuclear contribution   :      1.74064       1.92569       1.16080
                        -----------------------------------------
Total Dipole Moment    :     -0.26092       0.54084      -0.02516
                        -----------------------------------------
Magnitude (a.u.)       :      0.60102
Magnitude (Debye)      :      1.52766

VIBRATIONAL FREQUENCIES
-----------------------

   0:         0.00 cm**-1
   1:         0.00 cm**-1
   2:         0.00 cm**-1
   3:         0.00 cm**-1
   4:         0.00 cm**-1
   5:         0.00 cm**-1
   6:       236.86 cm**-1
   7:       279.13 cm**-1
   8:       404.50 cm**-1
   9:       794.35 cm**-1
  10:       875.13 cm**-1
  11:      1007.80 cm**-1
  12:      1072.02 cm**-1
  13:      1134.51 cm**-1
  14:      1232.87 cm**-1
  15:      1252.67 cm**-1
  16:      1348.14 cm**-1
  17:      1399.11 cm**-1
  18:      1428.60 cm**-1
  19:      1446.33 cm**-1
  20:      1471.84 cm**-1
  21:      2898.32 cm**-1
  22:      2922.42 cm**-1
  23:      2974.94 cm**-1
  24:      3049.86 cm**-1
  25:      3050.21 cm**-1
  26:      3706.29 cm**-1

IR SPECTRUM
-----------

 Mode    freq (cm**-1)   T**2         TX         TY         TZ
-------------------------------------------------------------------
   6:       236.86   34.193211  ( -2.452943  -0.948177   5.222762)
   7:       279.13   83.174132  (  3.807267   1.446784  -8.160004)
   8:       404.50   11.100916  (  2.181967   2.124258   1.351836)
   9:       794.35    0.189691  (  0.190754   0.061111  -0.386742)
  10:       875.13   15.294592  (  2.169575   2.876563   1.520828)
  11:      1007.80   55.648155  (  4.078766   5.515921   2.930263)
  12:      1072.02   31.970564  (  2.917597   4.330821   2.168450)
  13:      1134.51    3.068911  (  0.747824   0.324477  -1.550608)
  14:      1232.87   61.991808  ( -2.910474  -6.849856  -2.569127)
  15:      1252.67    0.265813  (  0.208455   0.180396  -0.435679)
  16:      1348.14    3.708722  (  1.724575  -0.393094   0.761604)
  17:      1399.11   10.091650  ( -2.856268   0.755765  -1.167133)
  18:      1428.60    6.930518  ( -1.066706  -0.389525   2.375064)
  19:      1446.33    2.928944  (  0.467586   1.567312   0.503825)
  20:      1471.84    1.196004  ( -0.950781   0.093574  -0.532225)
  21:      2898.32   72.180281  (  2.284485  -8.180172  -0.214926)
  22:      2922.42   54.811259  (  3.114285   0.970682  -6.646071)
  23:      2974.94   15.722443  (  3.558582  -0.774805   1.567997)
  24:      3049.86   25.540695  ( -1.546738   2.286131   4.233426)
  25:      3050.21   23.921793  (  1.531103   4.158517  -2.069844)
  26:      3706.29   16.875408  ( -3.668675  -0.462662  -1.789463)

--------------------------
THERMOCHEMISTRY AT 298.15K
--------------------------

Temperature         ... 298.15 K
Pressure            ... 1.00 atm
Total Mass          ... 46.07 AMU

Throughout the following assumptions are being made:
  (1) The electronic state is orbitally nondegenerate
  (2) There are no thermally accessible electronically excited states
  (3) Hindered rotations indicated by low frequency modes are not
      treated as such but are treated as vibrations and this may
      cause some error
  (4) All equations used are the standard statistical mechanics
      equations for an ideal gas
  (5) All vibrations are strictly harmonic

freq.     236.86  E(vib)   ...       0.32
freq.     279.13  E(vib)   ...       0.28
freq.     404.50  E(vib)   ...       0.19
freq.     794.35  E(vib)   ...       0.05
freq.     875.13  E(vib)   ...       0.04
freq.    1007.80  E(vib)   ...       0.02
freq.    1072.02  E(vib)   ...       0.02
freq.    1134.51  E(vib)   ...       0.01
freq.    1232.87  E(vib)   ...       0.01
freq.    1252.67  E(vib)   ...       0.01
freq.    1348.14  E(vib)   ...       0.01
freq.    1399.11  E(vib)   ...       0.00
freq.    1428.60  E(vib)   ...       0.00
freq.    1446.33  E(vib)   ...       0.00
freq.    1471.84  E(vib)   ...       0.00
freq.    2898.32  E(vib)   ...       0.00
freq.    2922.42  E(vib)   ...       0.00
freq.    2974.94  E(vib)   ...       0.00
freq.    3049.86  E(vib)   ...       0.00
freq.    3050.21  E(vib)   ...       0.00
freq.    3706.29  E(vib)   ...       0.00

------------
INNER ENERGY
------------

The inner energy is: U= E(el) + E(ZPE) + E(vib) + E(rot) + E(trans)
    E(el)   - is the total energy from the electronic structure calculation
              = E(kin-el) + E(nuc-el) + E(el-el) + E(nuc-nuc)
    E(ZPE)  - the the zero temperature vibrational energy from the frequency calculation
    E(vib)  - the the finite temperature correction to E(ZPE) due to population
              of excited vibrational states
    E(rot)  - is the rotational thermal energy
    E(trans)- is the translational thermal energy

Summary of contributions to the inner energy U:
Electronic energy                ...   -154.90553644 Eh
Zero point energy                ...      0.07742559 Eh      48.59 kcal/mol
Thermal vibrational correction   ...      0.00154510 Eh       0.97 kcal/mol
Thermal rotational correction    ...      0.00141627 Eh       0.89 kcal/mol
Thermal translational correction ...      0.00141627 Eh       0.89 kcal/mol
-----------------------------------------------------------------------
Total thermal energy                   -154.82373321 Eh

Summary of corrections to the electronic energy:
(perhaps to be used in another calculation)
Total thermal correction                  0.00437765 Eh       2.75 kcal/mol
Non-thermal (ZPE) correction              0.07742559 Eh      48.59 kcal/mol
-----------------------------------------------------------------------
Total correction                          0.08180323 Eh      51.33 kcal/mol

--------
ENTHALPY
--------

The enthalpy is H = U + kB*T
                kB is Boltzmann's constant
Total free energy                 ...   -154.82373321 Eh
Thermal Enthalpy correction       ...      0.00094421 Eh       0.59 kcal/mol
-----------------------------------------------------------------------
Total Enthalpy                    ...   -154.82278900 Eh

Vibrational entropy computed according to the QRRHO of S. Grimme
Chem.Eur.J. 2012 18 9955

-------
ENTROPY
-------

The entropy contributions are T*S = T*(S(el)+S(vib)+S(rot)+S(trans)
     S(el)   - electronic entropy
     S(vib)  - vibrational entropy
     S(rot)  - rotational entropy
     S(trans)- translational entropy
The entropies will be listed as mutliplied by the temperature to get
units of energy

Electronic entropy                ...      0.00000000 Eh      0.00 kcal/mol
Vibrational entropy               ...      0.00240356 Eh      1.51 kcal/mol
Rotational entropy                ...      0.00957373 Eh      6.01 kcal/mol
Translational entropy             ...      0.01777359 Eh     11.15 kcal/mol
-----------------------------------------------------------------------
Final entropy term                ...      0.02975088 Eh     18.67 kcal/mol

CAUTION: The rotational entropy is not quite correctly treated here
         because it includes a symmetry number that is not yet correctly
         implemented in ORCA!
For a nonlinear molecule the correct rotational entropy is:
    S(rot) = R*(ln(qrot/sn)+1.5)
    R    = 8.31441 J/mol/K = 1.987191683e-3 kcal/mol/K
    qrot = 16955.2199737
    sn is the rotational symmetry number. We have assumed 3 here
       if it is different for your molecule then you should correct
       the printed rotational entropy by manually evaluating the equation
       as given above

For convenience we print out the resulting values for sn=1 - 12:
 sn= 1  qrot/sn=   16955.2200 T*S(rot)=     6.66 kcal/mol T*S(tot)=    19.32 kcal/mol
 sn= 2  qrot/sn=    8477.6100 T*S(rot)=     6.25 kcal/mol T*S(tot)=    18.91 kcal/mol
 sn= 3  qrot/sn=    5651.7400 T*S(rot)=     6.01 kcal/mol T*S(tot)=    18.67 kcal/mol
 sn= 4  qrot/sn=    4238.8050 T*S(rot)=     5.84 kcal/mol T*S(tot)=    18.50 kcal/mol
 sn= 5  qrot/sn=    3391.0440 T*S(rot)=     5.70 kcal/mol T*S(tot)=    18.37 kcal/mol
 sn= 6  qrot/sn=    2825.8700 T*S(rot)=     5.60 kcal/mol T*S(tot)=    18.26 kcal/mol
 sn= 7  qrot/sn=    2422.1743 T*S(rot)=     5.51 kcal/mol T*S(tot)=    18.17 kcal/mol
 sn= 8  qrot/sn=    2119.4025 T*S(rot)=     5.43 kcal/mol T*S(tot)=    18.09 kcal/mol
 sn= 9  qrot/sn=    1883.9133 T*S(rot)=     5.36 kcal/mol T*S(tot)=    18.02 kcal/mol
 sn=10  qrot/sn=    1695.5220 T*S(rot)=     5.29 kcal/mol T*S(tot)=    17.96 kcal/mol
 sn=11  qrot/sn=    1541.3836 T*S(rot)=     5.24 kcal/mol T*S(tot)=    17.90 kcal/mol
 sn=12  qrot/sn=    1412.9350 T*S(rot)=     5.19 kcal/mol T*S(tot)=    17.85 kcal/mol

-------------------
GIBBS FREE ENTHALPY
-------------------

The Gibbs free enthalpy is G = H - T*S

Total enthalpy                    ...   -154.82278900 Eh
Total entropy correction          ...     -0.02975088 Eh    -18.67 kcal/mol
-----------------------------------------------------------------------
Final Gibbs free enthalpy         ...   -154.85253988 Eh

For completeness - the Gibbs free enthalpy minus the electronic energy
G-E(el)                           ...      0.05299656 Eh     33.26 kcal/mol

                             ****ORCA TERMINATED NORMALLY****
TOTAL RUN TIME: 0 days 0 hours 2 minutes 4 seconds 51 msec
