                         Program Version 4.0.1.2 - RELEASE -
|  1> # avogadro generated ORCA input file
|  2> # Basic Mode
|  3> #
|  4> ! PBE OPT def2-TZVP
|  5>
|  6> * xyzfile 0 1 C2H5OH.xyz
|  7>
|  8>
|  9>                          ****END OF INPUT****
 Total Charge           Charge          ....    0
 Multiplicity           Mult            ....    1
 Number of Electrons    NEL             ....   26
FINAL SINGLE POINT ENERGY      -154.897570094252
FINAL SINGLE POINT ENERGY      -154.905123952943
FINAL SINGLE POINT ENERGY      -154.905421141889
FINAL SINGLE POINT ENERGY      -154.905517127521
FINAL SINGLE POINT ENERGY      -154.905535261316
                    ***********************HURRAY********************

CARTESIAN COORDINATES (ANGSTROEM)
---------------------------------
  C     -0.037553   -0.009112   -0.019190
  C     -1.391178    0.369968   -0.585964
  O     -2.008895   -0.822105   -1.088633
  H     -2.876862   -0.578393   -1.450442
  H     -2.015962    0.831958    0.202979
  H     -1.267469    1.116614   -1.394474
  H      0.476276    0.878666    0.376872
  H     -0.151572   -0.738062    0.795748
  H      0.595023   -0.458241   -0.798162

 Multiplicity           Mult            ....    1
 Number of Electrons    NEL             ....   26
 Basis Dimension        Dim             ....  129

ORBITAL ENERGIES
----------------

  NO   OCC          E(Eh)            E(eV)
   0   2.0000     -18.745585      -510.0933
   1   2.0000      -9.926949      -270.1260
   2   2.0000      -9.871434      -268.6154
   3   2.0000      -0.927598       -25.2412
   4   2.0000      -0.677881       -18.4461
   5   2.0000      -0.546725       -14.8772
   6   2.0000      -0.463991       -12.6258
   7   2.0000      -0.412538       -11.2257
   8   2.0000      -0.356180        -9.6921
   9   2.0000      -0.337750        -9.1907
  10   2.0000      -0.318169        -8.6578
  11   2.0000      -0.288881        -7.8608
  12   2.0000      -0.224372        -6.1055
  13   0.0000       0.007952         0.2164
  14   0.0000       0.038289         1.0419
  15   0.0000       0.071754         1.9525
  16   0.0000       0.078908         2.1472
  17   0.0000       0.093792         2.5522

MULLIKEN ATOMIC CHARGES
-----------------------
   0 C :   -0.324186
   1 C :   -0.081671
   2 O :   -0.421116
   3 H :    0.293181
   4 H :    0.090125
   5 H :    0.095641
   6 H :    0.106797
   7 H :    0.121758
   8 H :    0.119471
Sum of atomic charges:   -0.0000000

LOEWDIN ATOMIC CHARGES
----------------------
   0 C :   -0.326657
   1 C :   -0.394045
   2 O :   -0.048982
   3 H :    0.169489
   4 H :    0.112608
   5 H :    0.113088
   6 H :    0.125205
   7 H :    0.124580
   8 H :    0.124713

  Mayer bond orders larger than 0.1
B(  0-C ,  1-C ) :   1.0191 B(  0-C ,  6-H ) :   0.9526 B(  0-C ,  7-H ) :   0.9637
B(  0-C ,  8-H ) :   0.9616 B(  1-C ,  2-O ) :   1.0782 B(  1-C ,  4-H ) :   0.9474
B(  1-C ,  5-H ) :   0.9478 B(  2-O ,  3-H ) :   0.9014

FINAL SINGLE POINT ENERGY      -154.905536464263

DIPOLE MOMENT
-------------
                                X             Y             Z
Electronic contribution:     -2.00161      -1.38476      -1.18597
Nuclear contribution   :      1.74064       1.92569       1.16080
                        -----------------------------------------
Total Dipole Moment    :     -0.26097       0.54093      -0.02516
                        -----------------------------------------
Magnitude (a.u.)       :      0.60112
Magnitude (Debye)      :      1.52792

                             ****ORCA TERMINATED NORMALLY****
TOTAL RUN TIME: 0 days 0 hours 1 minutes 3 seconds 803 msec
