                         Program Version 4.0.1.2 - RELEASE -
|  1> # avogadro generated ORCA input file
|  2> # Basic Mode
|  3> #
|  4> ! PBE FREQ def2-TZVP
|  5>
|  6> * xyzfile 0 1 C6H6.xyz
|  7>
|  8>
|  9>                          ****END OF INPUT****

CARTESIAN COORDINATES (ANGSTROEM)
---------------------------------
  C     -2.831900    2.847290   -0.000000
  C     -4.340190    1.769940   -0.000000
  C     -0.523290    2.093140    0.000000
  C     -2.400960   -1.369780    0.000000
  H     -2.361160   -2.439040    0.000000
  H     -5.306030    2.230430    0.000000
  H     -5.089250   -1.105480   -0.000000
  H     -2.994180    3.904910   -0.000000
  C     -4.201670   -0.507890   -0.000000
  C     -0.415550   -0.230860   -0.000000
  H      0.328080    2.741280    0.000000
  H      0.522520   -0.745560   -0.000000

 Total Charge           Charge          ....    0
 Multiplicity           Mult            ....    1
 Number of Electrons    NEL             ....   42
 Basis Dimension        Dim             ....  222

ORBITAL ENERGIES
----------------

  NO   OCC          E(Eh)            E(eV)
   0   2.0000     -10.001744      -272.1613
   1   2.0000     -10.001600      -272.1574
   2   2.0000      -9.998682      -272.0780
   3   2.0000      -9.997692      -272.0510
   4   2.0000      -9.994018      -271.9511
   5   2.0000      -9.993946      -271.9491
   6   2.0000      -0.620346       -16.8805
   7   2.0000      -0.603727       -16.4282
   8   2.0000      -0.587990       -16.0000
   9   2.0000      -0.563340       -15.3293
  10   2.0000      -0.548497       -14.9254
  11   2.0000      -0.531645       -14.4668
  12   2.0000      -0.369483       -10.0541
  13   2.0000      -0.345940        -9.4135
  14   2.0000      -0.326507        -8.8847
  15   2.0000      -0.290236        -7.8977
  16   2.0000      -0.280566        -7.6346
  17   2.0000      -0.260336        -7.0841
  18   2.0000      -0.218976        -5.9586
  19   2.0000      -0.198156        -5.3921
  20   2.0000      -0.184875        -5.0307
  21   0.0000      -0.159749        -4.3470
  22   0.0000      -0.146324        -3.9817
  23   0.0000      -0.133452        -3.6314
  24   0.0000      -0.128565        -3.4984
  25   0.0000      -0.122267        -3.3270

MULLIKEN ATOMIC CHARGES
-----------------------
   0 C :   -0.175589
   1 C :   -0.174258
   2 C :   -0.213785
   3 C :   -0.193538
   4 H :    0.194648
   5 H :    0.178183
   6 H :    0.185317
   7 H :    0.188918
   8 C :   -0.182546
   9 C :   -0.189953
  10 H :    0.195048
  11 H :    0.187555
Sum of atomic charges:   -0.0000000

LOEWDIN ATOMIC CHARGES
----------------------
   0 C :   -0.097410
   1 C :   -0.105221
   2 C :   -0.103577
   3 C :   -0.101591
   4 H :    0.102096
   5 H :    0.106708
   6 H :    0.102151
   7 H :    0.105124
   8 C :   -0.100745
   9 C :   -0.098397
  10 H :    0.095402
  11 H :    0.095461

  Mayer bond orders larger than 0.1
B(  0-C ,  1-C ) :   1.6645 B(  0-C ,  2-C ) :   0.9365 B(  0-C ,  7-H ) :   0.8571
B(  1-C ,  5-H ) :   0.8684 B(  1-C ,  8-C ) :   0.9883 B(  2-C ,  8-C ) :   0.1263
B(  2-C ,  9-C ) :   1.4735 B(  2-C , 10-H ) :   0.8324 B(  3-C ,  4-H ) :   0.8530
B(  3-C ,  8-C ) :   1.5768 B(  3-C ,  9-C ) :   1.0157 B(  6-H ,  8-C ) :   0.8581
B(  9-C , 11-H ) :   0.8381

FINAL SINGLE POINT ENERGY      -231.054600765898

DIPOLE MOMENT
-------------
                                X             Y             Z
Electronic contribution:      0.08911       0.00347       0.00000
Nuclear contribution   :     -0.16139      -0.01324       0.00000
                        -----------------------------------------
Total Dipole Moment    :     -0.07228      -0.00977       0.00000
                        -----------------------------------------
Magnitude (a.u.)       :      0.07294
Magnitude (Debye)      :      0.18540

VIBRATIONAL FREQUENCIES
-----------------------

   0:         0.00 cm**-1
   1:         0.00 cm**-1
   2:         0.00 cm**-1
   3:         0.00 cm**-1
   4:         0.00 cm**-1
   5:         0.00 cm**-1
   6:     -1182.70 cm**-1 ***imaginary mode***
   7:      -877.01 cm**-1 ***imaginary mode***
   8:      -798.84 cm**-1 ***imaginary mode***
   9:      -698.04 cm**-1 ***imaginary mode***
  10:      -587.07 cm**-1 ***imaginary mode***
  11:      -530.86 cm**-1 ***imaginary mode***
  12:      -462.02 cm**-1 ***imaginary mode***
  13:      -451.52 cm**-1 ***imaginary mode***
  14:      -415.81 cm**-1 ***imaginary mode***
  15:      -385.13 cm**-1 ***imaginary mode***
  16:      -344.60 cm**-1 ***imaginary mode***
  17:      -281.23 cm**-1 ***imaginary mode***
  18:      -236.21 cm**-1 ***imaginary mode***
  19:       335.92 cm**-1
  20:       337.54 cm**-1
  21:       394.20 cm**-1
  22:       400.03 cm**-1
  23:       464.29 cm**-1
  24:       538.02 cm**-1
  25:       593.26 cm**-1
  26:       631.90 cm**-1
  27:       678.65 cm**-1
  28:       741.52 cm**-1
  29:       813.95 cm**-1
  30:      3326.21 cm**-1
  31:      3326.30 cm**-1
  32:      3328.95 cm**-1
  33:      3329.87 cm**-1
  34:      3333.87 cm**-1
  35:      3334.88 cm**-1

IR SPECTRUM
-----------

 Mode    freq (cm**-1)   T**2         TX         TY         TZ
-------------------------------------------------------------------
  19:       335.92    0.095802  (  0.000036  -0.000111  -0.309520)
  20:       337.54    1.202111  ( -0.147351   1.086462  -0.000016)
  21:       394.20    1.642739  (  1.143326   0.579262   0.000005)
  22:       400.03    0.358416  ( -0.000066  -0.000549  -0.598679)
  23:       464.29    0.000004  (  0.000008   0.000211   0.001981)
  24:       538.02    0.227876  (  0.321054  -0.353272   0.000000)
  25:       593.26   12.603861  ( -2.797867   2.185361   0.000004)
  26:       631.90   18.616797  ( -0.920649   4.215353   0.000011)
  27:       678.65    8.813950  (  2.944035  -0.382892   0.000002)
  28:       741.52    5.036893  (  0.101704  -2.241997   0.000006)
  29:       813.95    3.193683  ( -1.621193   0.751941  -0.000002)
  30:      3326.21   14.236608  (  2.620902   2.714310  -0.000003)
  31:      3326.30    9.519962  (  1.666223  -2.596857   0.000003)
  32:      3328.95    6.760894  ( -0.039890   2.599866   0.000000)
  33:      3329.87    0.372799  ( -0.203424  -0.575689   0.000000)
  34:      3333.87   20.675979  ( -4.543647  -0.176779   0.000000)
  35:      3334.88    2.269235  (  0.062654   1.505095   0.000000)

--------------------------
THERMOCHEMISTRY AT 298.15K
--------------------------

Temperature         ... 298.15 K
Pressure            ... 1.00 atm
Total Mass          ... 78.11 AMU

Throughout the following assumptions are being made:
  (1) The electronic state is orbitally nondegenerate
  (2) There are no thermally accessible electronically excited states
  (3) Hindered rotations indicated by low frequency modes are not
      treated as such but are treated as vibrations and this may
      cause some error
  (4) All equations used are the standard statistical mechanics
      equations for an ideal gas
  (5) All vibrations are strictly harmonic

freq.     335.92  E(vib)   ...       0.24
freq.     337.54  E(vib)   ...       0.24
freq.     394.20  E(vib)   ...       0.20
freq.     400.03  E(vib)   ...       0.19
freq.     464.29  E(vib)   ...       0.16
freq.     538.02  E(vib)   ...       0.12
freq.     593.26  E(vib)   ...       0.10
freq.     631.90  E(vib)   ...       0.09
freq.     678.65  E(vib)   ...       0.08
freq.     741.52  E(vib)   ...       0.06
freq.     813.95  E(vib)   ...       0.05
freq.    3326.21  E(vib)   ...       0.00
freq.    3326.30  E(vib)   ...       0.00
freq.    3328.95  E(vib)   ...       0.00
freq.    3329.87  E(vib)   ...       0.00
freq.    3333.87  E(vib)   ...       0.00
freq.    3334.88  E(vib)   ...       0.00

------------
INNER ENERGY
------------

The inner energy is: U= E(el) + E(ZPE) + E(vib) + E(rot) + E(trans)
    E(el)   - is the total energy from the electronic structure calculation
              = E(kin-el) + E(nuc-el) + E(el-el) + E(nuc-nuc)
    E(ZPE)  - the the zero temperature vibrational energy from the frequency calculation
    E(vib)  - the the finite temperature correction to E(ZPE) due to population
              of excited vibrational states
    E(rot)  - is the rotational thermal energy
    E(trans)- is the translational thermal energy

Summary of contributions to the inner energy U:
Electronic energy                ...   -231.05460077 Eh
Zero point energy                ...      0.05902591 Eh      37.04 kcal/mol
Thermal vibrational correction   ...      0.00242630 Eh       1.52 kcal/mol
Thermal rotational correction    ...      0.00141627 Eh       0.89 kcal/mol
Thermal translational correction ...      0.00141627 Eh       0.89 kcal/mol
-----------------------------------------------------------------------
Total thermal energy                   -230.99031601 Eh

Summary of corrections to the electronic energy:
(perhaps to be used in another calculation)
Total thermal correction                  0.00525884 Eh       3.30 kcal/mol
Non-thermal (ZPE) correction              0.05902591 Eh      37.04 kcal/mol
-----------------------------------------------------------------------
Total correction                          0.06428475 Eh      40.34 kcal/mol

--------
ENTHALPY
--------

The enthalpy is H = U + kB*T
                kB is Boltzmann's constant
Total free energy                 ...   -230.99031601 Eh
Thermal Enthalpy correction       ...      0.00094421 Eh       0.59 kcal/mol
-----------------------------------------------------------------------
Total Enthalpy                    ...   -230.98937180 Eh

Vibrational entropy computed according to the QRRHO of S. Grimme
Chem.Eur.J. 2012 18 9955

-------
ENTROPY
-------

The entropy contributions are T*S = T*(S(el)+S(vib)+S(rot)+S(trans)
     S(el)   - electronic entropy
     S(vib)  - vibrational entropy
     S(rot)  - rotational entropy
     S(trans)- translational entropy
The entropies will be listed as mutliplied by the temperature to get
units of energy

Electronic entropy                ...      0.00000000 Eh      0.00 kcal/mol
Vibrational entropy               ...      0.00351033 Eh      2.20 kcal/mol
Rotational entropy                ...      0.01234504 Eh      7.75 kcal/mol
Translational entropy             ...      0.01852142 Eh     11.62 kcal/mol
-----------------------------------------------------------------------
Final entropy term                ...      0.03437679 Eh     21.57 kcal/mol

CAUTION: The rotational entropy is not quite correctly treated here
         because it includes a symmetry number that is not yet correctly
         implemented in ORCA!
For a nonlinear molecule the correct rotational entropy is:
    S(rot) = R*(ln(qrot/sn)+1.5)
    R    = 8.31441 J/mol/K = 1.987191683e-3 kcal/mol/K
    qrot = 319170.5375282
    sn is the rotational symmetry number. We have assumed 3 here
       if it is different for your molecule then you should correct
       the printed rotational entropy by manually evaluating the equation
       as given above

For convenience we print out the resulting values for sn=1 - 12:
 sn= 1  qrot/sn=  319170.5375 T*S(rot)=     8.40 kcal/mol T*S(tot)=    22.22 kcal/mol
 sn= 2  qrot/sn=  159585.2688 T*S(rot)=     7.99 kcal/mol T*S(tot)=    21.81 kcal/mol
 sn= 3  qrot/sn=  106390.1792 T*S(rot)=     7.75 kcal/mol T*S(tot)=    21.57 kcal/mol
 sn= 4  qrot/sn=   79792.6344 T*S(rot)=     7.58 kcal/mol T*S(tot)=    21.40 kcal/mol
 sn= 5  qrot/sn=   63834.1075 T*S(rot)=     7.44 kcal/mol T*S(tot)=    21.27 kcal/mol
 sn= 6  qrot/sn=   53195.0896 T*S(rot)=     7.34 kcal/mol T*S(tot)=    21.16 kcal/mol
 sn= 7  qrot/sn=   45595.7911 T*S(rot)=     7.24 kcal/mol T*S(tot)=    21.07 kcal/mol
 sn= 8  qrot/sn=   39896.3172 T*S(rot)=     7.17 kcal/mol T*S(tot)=    20.99 kcal/mol
 sn= 9  qrot/sn=   35463.3931 T*S(rot)=     7.10 kcal/mol T*S(tot)=    20.92 kcal/mol
 sn=10  qrot/sn=   31917.0538 T*S(rot)=     7.03 kcal/mol T*S(tot)=    20.86 kcal/mol
 sn=11  qrot/sn=   29015.5034 T*S(rot)=     6.98 kcal/mol T*S(tot)=    20.80 kcal/mol
 sn=12  qrot/sn=   26597.5448 T*S(rot)=     6.93 kcal/mol T*S(tot)=    20.75 kcal/mol

-------------------
GIBBS FREE ENTHALPY
-------------------

The Gibbs free enthalpy is G = H - T*S

Total enthalpy                    ...   -230.98937180 Eh
Total entropy correction          ...     -0.03437679 Eh    -21.57 kcal/mol
-----------------------------------------------------------------------
Final Gibbs free enthalpy         ...   -231.02374860 Eh

For completeness - the Gibbs free enthalpy minus the electronic energy
G-E(el)                           ...      0.03085217 Eh     19.36 kcal/mol

                             ****ORCA TERMINATED NORMALLY****
TOTAL RUN TIME: 0 days 0 hours 7 minutes 10 seconds 791 msec
