                         Program Version 4.0.1.2 - RELEASE -
|  1> # avogadro generated ORCA input file
|  2> # Basic Mode
|  3> #
|  4> ! PBE OPT def2-TZVP
|  5>
|  6> * xyzfile 0 1 C6H6.xyz
|  7>
|  8>
|  9>                          ****END OF INPUT****
 Total Charge           Charge          ....    0
 Multiplicity           Mult            ....    1
 Number of Electrons    NEL             ....   42
FINAL SINGLE POINT ENERGY      -231.054600766736
FINAL SINGLE POINT ENERGY      -231.134795317698
FINAL SINGLE POINT ENERGY      -231.217797145333
FINAL SINGLE POINT ENERGY      -231.302714834568
FINAL SINGLE POINT ENERGY      -231.387614823127
FINAL SINGLE POINT ENERGY      -231.470181081790
FINAL SINGLE POINT ENERGY      -231.548186720354
FINAL SINGLE POINT ENERGY      -231.620723604518
FINAL SINGLE POINT ENERGY      -231.688114581697
FINAL SINGLE POINT ENERGY      -231.750291892308
FINAL SINGLE POINT ENERGY      -232.015255309326
FINAL SINGLE POINT ENERGY      -232.017342081623
FINAL SINGLE POINT ENERGY      -232.018958616662
FINAL SINGLE POINT ENERGY      -232.012852437416
FINAL SINGLE POINT ENERGY      -232.019295477923
FINAL SINGLE POINT ENERGY      -232.019095666137
FINAL SINGLE POINT ENERGY      -232.019505463123
FINAL SINGLE POINT ENERGY      -232.019491831204
FINAL SINGLE POINT ENERGY      -232.019516396144
                    ***********************HURRAY********************

CARTESIAN COORDINATES (ANGSTROEM)
---------------------------------
  C     -2.577933    2.158665   -0.000145
  C     -3.729310    1.366628   -0.000001
  C     -1.316175    1.557716    0.000019
  C     -2.357723   -0.627113   -0.000016
  H     -2.271987   -1.715804   -0.000060
  H     -4.714298    1.837283    0.000088
  H     -4.518063   -0.645878    0.000036
  H     -2.665146    3.247207   -0.000079
  C     -3.619517   -0.026149    0.000026
  C     -1.206415    0.164519    0.000006
  H     -0.416445    2.175707    0.000132
  H     -0.220568   -0.304399   -0.000007

 Multiplicity           Mult            ....    1
 Number of Electrons    NEL             ....   42
 Basis Dimension        Dim             ....  222

ORBITAL ENERGIES
----------------

  NO   OCC          E(Eh)            E(eV)
   0   2.0000      -9.889152      -269.0975
   1   2.0000      -9.889048      -269.0947
   2   2.0000      -9.888982      -269.0929
   3   2.0000      -9.888673      -269.0845
   4   2.0000      -9.888603      -269.0826
   5   2.0000      -9.888461      -269.0787
   6   2.0000      -0.777347       -21.1527
   7   2.0000      -0.675275       -18.3752
   8   2.0000      -0.675201       -18.3732
   9   2.0000      -0.542752       -14.7690
  10   2.0000      -0.542678       -14.7670
  11   2.0000      -0.471778       -12.8377
  12   2.0000      -0.409483       -11.1426
  13   2.0000      -0.398839       -10.8530
  14   2.0000      -0.374124       -10.1804
  15   2.0000      -0.374011       -10.1774
  16   2.0000      -0.331560        -9.0222
  17   2.0000      -0.301215        -8.1965
  18   2.0000      -0.301127        -8.1941
  19   2.0000      -0.231515        -6.2999
  20   2.0000      -0.231440        -6.2978
  21   0.0000      -0.043651        -1.1878
  22   0.0000      -0.043123        -1.1734
  23   0.0000       0.024522         0.6673
  24   0.0000       0.058230         1.5845
  25   0.0000       0.060199         1.6381

MULLIKEN ATOMIC CHARGES
-----------------------
   0 C :   -0.137081
   1 C :   -0.098076
   2 C :   -0.092600
   3 C :   -0.136991
   4 H :    0.116984
   5 H :    0.108637
   6 H :    0.102202
   7 H :    0.116963
   8 C :   -0.092651
   9 C :   -0.098267
  10 H :    0.102200
  11 H :    0.108680
Sum of atomic charges:   -0.0000000

LOEWDIN ATOMIC CHARGES
----------------------
   0 C :   -0.146683
   1 C :   -0.144585
   2 C :   -0.143893
   3 C :   -0.146737
   4 H :    0.146118
   5 H :    0.144533
   6 H :    0.144609
   7 H :    0.146093
   8 C :   -0.143972
   9 C :   -0.144580
  10 H :    0.144570
  11 H :    0.144526

  Mayer bond orders larger than 0.1
B(  0-C ,  1-C ) :   1.3780 B(  0-C ,  2-C ) :   1.3793 B(  0-C ,  7-H ) :   0.9802
B(  1-C ,  5-H ) :   0.9639 B(  1-C ,  8-C ) :   1.3968 B(  2-C ,  9-C ) :   1.3963
B(  2-C , 10-H ) :   0.9750 B(  3-C ,  4-H ) :   0.9801 B(  3-C ,  8-C ) :   1.3787
B(  3-C ,  9-C ) :   1.3787 B(  6-H ,  8-C ) :   0.9750 B(  9-C , 11-H ) :   0.9639

FINAL SINGLE POINT ENERGY      -232.019517891729

DIPOLE MOMENT
-------------
                                X             Y             Z
Electronic contribution:     -0.00044       0.00011      -0.00013
Nuclear contribution   :      0.00049      -0.00013       0.00019
                        -----------------------------------------
Total Dipole Moment    :      0.00005      -0.00002       0.00006
                        -----------------------------------------
Magnitude (a.u.)       :      0.00008
Magnitude (Debye)      :      0.00020

                             ****ORCA TERMINATED NORMALLY****
TOTAL RUN TIME: 0 days 0 hours 15 minutes 6 seconds 589 msec
