                         Program Version 4.0.1.2 - RELEASE -
|  1> # avogadro generated ORCA input file
|  2> # Basic Mode
|  3> #
|  4> ! PBE FREQ def2-TZVP
|  5>
|  6> * xyzfile 0 1 opt.xyz
|  7>
|  8>
|  9>                          ****END OF INPUT****

CARTESIAN COORDINATES (ANGSTROEM)
---------------------------------
  C     -2.577933    2.158665   -0.000145
  C     -3.729310    1.366628   -0.000001
  C     -1.316175    1.557716    0.000019
  C     -2.357723   -0.627113   -0.000016
  H     -2.271987   -1.715804   -0.000060
  H     -4.714298    1.837283    0.000088
  H     -4.518063   -0.645878    0.000036
  H     -2.665146    3.247207   -0.000079
  C     -3.619517   -0.026149    0.000026
  C     -1.206415    0.164519    0.000006
  H     -0.416445    2.175707    0.000132
  H     -0.220568   -0.304399   -0.000007

 Total Charge           Charge          ....    0
 Multiplicity           Mult            ....    1
 Number of Electrons    NEL             ....   42
 Basis Dimension        Dim             ....  222

ORBITAL ENERGIES
----------------

  NO   OCC          E(Eh)            E(eV)
   0   2.0000      -9.889143      -269.0973
   1   2.0000      -9.889038      -269.0944
   2   2.0000      -9.888972      -269.0926
   3   2.0000      -9.888663      -269.0842
   4   2.0000      -9.888596      -269.0824
   5   2.0000      -9.888450      -269.0784
   6   2.0000      -0.777323       -21.1520
   7   2.0000      -0.675265       -18.3749
   8   2.0000      -0.675190       -18.3729
   9   2.0000      -0.542752       -14.7690
  10   2.0000      -0.542678       -14.7670
  11   2.0000      -0.471775       -12.8376
  12   2.0000      -0.409496       -11.1430
  13   2.0000      -0.398831       -10.8527
  14   2.0000      -0.374118       -10.1803
  15   2.0000      -0.374003       -10.1772
  16   2.0000      -0.331545        -9.0218
  17   2.0000      -0.301214        -8.1965
  18   2.0000      -0.301126        -8.1941
  19   2.0000      -0.231505        -6.2996
  20   2.0000      -0.231428        -6.2975
  21   0.0000      -0.043644        -1.1876
  22   0.0000      -0.043116        -1.1733
  23   0.0000       0.024520         0.6672
  24   0.0000       0.058227         1.5844
  25   0.0000       0.060196         1.6380

MULLIKEN ATOMIC CHARGES
-----------------------
   0 C :   -0.137120
   1 C :   -0.098067
   2 C :   -0.092667
   3 C :   -0.136987
   4 H :    0.116988
   5 H :    0.108642
   6 H :    0.102198
   7 H :    0.116979
   8 C :   -0.092604
   9 C :   -0.098270
  10 H :    0.102218
  11 H :    0.108690
Sum of atomic charges:   -0.0000000

LOEWDIN ATOMIC CHARGES
----------------------
   0 C :   -0.146717
   1 C :   -0.144579
   2 C :   -0.143940
   3 C :   -0.146728
   4 H :    0.146125
   5 H :    0.144541
   6 H :    0.144614
   7 H :    0.146104
   8 C :   -0.143942
   9 C :   -0.144594
  10 H :    0.144582
  11 H :    0.144535

  Mayer bond orders larger than 0.1
B(  0-C ,  1-C ) :   1.3780 B(  0-C ,  2-C ) :   1.3793 B(  0-C ,  7-H ) :   0.9802
B(  1-C ,  5-H ) :   0.9639 B(  1-C ,  8-C ) :   1.3968 B(  2-C ,  9-C ) :   1.3963
B(  2-C , 10-H ) :   0.9750 B(  3-C ,  4-H ) :   0.9801 B(  3-C ,  8-C ) :   1.3787
B(  3-C ,  9-C ) :   1.3787 B(  6-H ,  8-C ) :   0.9750 B(  9-C , 11-H ) :   0.9639

FINAL SINGLE POINT ENERGY      -232.019517822855

DIPOLE MOMENT
-------------
                                X             Y             Z
Electronic contribution:     -0.00062      -0.00007      -0.00013
Nuclear contribution   :      0.00049      -0.00013       0.00019
                        -----------------------------------------
Total Dipole Moment    :     -0.00013      -0.00020       0.00006
                        -----------------------------------------
Magnitude (a.u.)       :      0.00024
Magnitude (Debye)      :      0.00062

VIBRATIONAL FREQUENCIES
-----------------------

   0:         0.00 cm**-1
   1:         0.00 cm**-1
   2:         0.00 cm**-1
   3:         0.00 cm**-1
   4:         0.00 cm**-1
   5:         0.00 cm**-1
   6:       387.09 cm**-1
   7:       392.17 cm**-1
   8:       599.66 cm**-1
   9:       600.66 cm**-1
  10:       658.46 cm**-1
  11:       697.98 cm**-1
  12:       827.44 cm**-1
  13:       828.90 cm**-1
  14:       913.84 cm**-1
  15:       916.10 cm**-1
  16:       950.72 cm**-1
  17:       993.20 cm**-1
  18:       995.04 cm**-1
  19:      1034.04 cm**-1
  20:      1034.91 cm**-1
  21:      1139.81 cm**-1
  22:      1161.92 cm**-1
  23:      1162.17 cm**-1
  24:      1332.85 cm**-1
  25:      1342.89 cm**-1
  26:      1466.21 cm**-1
  27:      1466.81 cm**-1
  28:      1590.50 cm**-1
  29:      1591.50 cm**-1
  30:      3090.01 cm**-1
  31:      3097.77 cm**-1
  32:      3100.97 cm**-1
  33:      3113.65 cm**-1
  34:      3116.56 cm**-1
  35:      3125.10 cm**-1

IR SPECTRUM
-----------

 Mode    freq (cm**-1)   T**2         TX         TY         TZ
-------------------------------------------------------------------
   6:       387.09    0.007175  (  0.001472  -0.003245  -0.084633)
   7:       392.17    0.002365  ( -0.004277  -0.002170  -0.048392)
   8:       599.66    0.000023  (  0.004008  -0.002320  -0.001170)
   9:       600.66    0.000027  ( -0.002436  -0.004535   0.000522)
  10:       658.46  108.953325  ( -0.000177   0.005742  10.438069)
  11:       697.98    0.000263  ( -0.000418  -0.016198   0.000483)
  12:       827.44    0.000012  (  0.001772   0.001546  -0.002588)
  13:       828.90    0.000051  (  0.000701  -0.007122  -0.000372)
  14:       913.84    0.000822  ( -0.002237   0.004201  -0.028276)
  15:       916.10    0.025749  ( -0.000709  -0.009210   0.160200)
  16:       950.72    0.000017  (  0.000141   0.002421  -0.003333)
  17:       993.20    0.003274  ( -0.044154   0.036385   0.000525)
  18:       995.04    0.000061  ( -0.005367  -0.005631   0.000219)
  19:      1034.04    5.524982  (  0.483927  -2.300173   0.000273)
  20:      1034.91    5.689541  ( -2.316164  -0.570020  -0.000009)
  21:      1139.81    0.001961  (  0.023227   0.037705   0.000010)
  22:      1161.92    0.000090  ( -0.003444  -0.008856   0.000031)
  23:      1162.17    0.000151  ( -0.011929   0.002880   0.000243)
  24:      1332.85    0.000000  ( -0.000557  -0.000182   0.000003)
  25:      1342.89    0.003421  ( -0.041401  -0.041310   0.000010)
  26:      1466.21    6.937044  (  0.919562  -2.468086  -0.000067)
  27:      1466.81    7.201465  (  2.525293   0.907942  -0.000018)
  28:      1590.50    0.000133  ( -0.011319   0.002189   0.000136)
  29:      1591.50    0.000076  ( -0.000686  -0.008681  -0.000017)
  30:      3090.01    0.273888  ( -0.168408  -0.495506  -0.000086)
  31:      3097.77    0.000448  ( -0.000161   0.021171   0.000195)
  32:      3100.97    0.001282  (  0.032938  -0.014046  -0.000063)
  33:      3113.65   33.972686  ( -1.763153   5.555536  -0.000039)
  34:      3116.56   34.206115  ( -5.607133  -1.663184   0.000045)
  35:      3125.10    0.003058  (  0.015299  -0.053139  -0.000049)

--------------------------
THERMOCHEMISTRY AT 298.15K
--------------------------

Temperature         ... 298.15 K
Pressure            ... 1.00 atm
Total Mass          ... 78.11 AMU

Throughout the following assumptions are being made:
  (1) The electronic state is orbitally nondegenerate
  (2) There are no thermally accessible electronically excited states
  (3) Hindered rotations indicated by low frequency modes are not
      treated as such but are treated as vibrations and this may
      cause some error
  (4) All equations used are the standard statistical mechanics
      equations for an ideal gas
  (5) All vibrations are strictly harmonic

freq.     387.09  E(vib)   ...       0.20
freq.     392.17  E(vib)   ...       0.20
freq.     599.66  E(vib)   ...       0.10
freq.     600.66  E(vib)   ...       0.10
freq.     658.46  E(vib)   ...       0.08
freq.     697.98  E(vib)   ...       0.07
freq.     827.44  E(vib)   ...       0.04
freq.     828.90  E(vib)   ...       0.04
freq.     913.84  E(vib)   ...       0.03
freq.     916.10  E(vib)   ...       0.03
freq.     950.72  E(vib)   ...       0.03
freq.     993.20  E(vib)   ...       0.02
freq.     995.04  E(vib)   ...       0.02
freq.    1034.04  E(vib)   ...       0.02
freq.    1034.91  E(vib)   ...       0.02
freq.    1139.81  E(vib)   ...       0.01
freq.    1161.92  E(vib)   ...       0.01
freq.    1162.17  E(vib)   ...       0.01
freq.    1332.85  E(vib)   ...       0.01
freq.    1342.89  E(vib)   ...       0.01
freq.    1466.21  E(vib)   ...       0.00
freq.    1466.81  E(vib)   ...       0.00
freq.    1590.50  E(vib)   ...       0.00
freq.    1591.50  E(vib)   ...       0.00
freq.    3090.01  E(vib)   ...       0.00
freq.    3097.77  E(vib)   ...       0.00
freq.    3100.97  E(vib)   ...       0.00
freq.    3113.65  E(vib)   ...       0.00
freq.    3116.56  E(vib)   ...       0.00
freq.    3125.10  E(vib)   ...       0.00

------------
INNER ENERGY
------------

The inner energy is: U= E(el) + E(ZPE) + E(vib) + E(rot) + E(trans)
    E(el)   - is the total energy from the electronic structure calculation
              = E(kin-el) + E(nuc-el) + E(el-el) + E(nuc-nuc)
    E(ZPE)  - the the zero temperature vibrational energy from the frequency calculation
    E(vib)  - the the finite temperature correction to E(ZPE) due to population
              of excited vibrational states
    E(rot)  - is the rotational thermal energy
    E(trans)- is the translational thermal energy

Summary of contributions to the inner energy U:
Electronic energy                ...   -232.01951782 Eh
Zero point energy                ...      0.09734367 Eh      61.08 kcal/mol
Thermal vibrational correction   ...      0.00172830 Eh       1.08 kcal/mol
Thermal rotational correction    ...      0.00141627 Eh       0.89 kcal/mol
Thermal translational correction ...      0.00141627 Eh       0.89 kcal/mol
-----------------------------------------------------------------------
Total thermal energy                   -231.91761331 Eh

Summary of corrections to the electronic energy:
(perhaps to be used in another calculation)
Total thermal correction                  0.00456084 Eh       2.86 kcal/mol
Non-thermal (ZPE) correction              0.09734367 Eh      61.08 kcal/mol
-----------------------------------------------------------------------
Total correction                          0.10190451 Eh      63.95 kcal/mol

--------
ENTHALPY
--------

The enthalpy is H = U + kB*T
                kB is Boltzmann's constant
Total free energy                 ...   -231.91761331 Eh
Thermal Enthalpy correction       ...      0.00094421 Eh       0.59 kcal/mol
-----------------------------------------------------------------------
Total Enthalpy                    ...   -231.91666910 Eh

Vibrational entropy computed according to the QRRHO of S. Grimme
Chem.Eur.J. 2012 18 9955

-------
ENTROPY
-------

The entropy contributions are T*S = T*(S(el)+S(vib)+S(rot)+S(trans)
     S(el)   - electronic entropy
     S(vib)  - vibrational entropy
     S(rot)  - rotational entropy
     S(trans)- translational entropy
The entropies will be listed as mutliplied by the temperature to get
units of energy

Electronic entropy                ...      0.00000000 Eh      0.00 kcal/mol
Vibrational entropy               ...      0.00233707 Eh      1.47 kcal/mol
Rotational entropy                ...      0.01115878 Eh      7.00 kcal/mol
Translational entropy             ...      0.01852142 Eh     11.62 kcal/mol
-----------------------------------------------------------------------
Final entropy term                ...      0.03201727 Eh     20.09 kcal/mol

CAUTION: The rotational entropy is not quite correctly treated here
         because it includes a symmetry number that is not yet correctly
         implemented in ORCA!
For a nonlinear molecule the correct rotational entropy is:
    S(rot) = R*(ln(qrot/sn)+1.5)
    R    = 8.31441 J/mol/K = 1.987191683e-3 kcal/mol/K
    qrot = 90861.4806642
    sn is the rotational symmetry number. We have assumed 3 here
       if it is different for your molecule then you should correct
       the printed rotational entropy by manually evaluating the equation
       as given above

For convenience we print out the resulting values for sn=1 - 12:
 sn= 1  qrot/sn=   90861.4807 T*S(rot)=     7.65 kcal/mol T*S(tot)=    20.74 kcal/mol
 sn= 2  qrot/sn=   45430.7403 T*S(rot)=     7.24 kcal/mol T*S(tot)=    20.33 kcal/mol
 sn= 3  qrot/sn=   30287.1602 T*S(rot)=     7.00 kcal/mol T*S(tot)=    20.09 kcal/mol
 sn= 4  qrot/sn=   22715.3702 T*S(rot)=     6.83 kcal/mol T*S(tot)=    19.92 kcal/mol
 sn= 5  qrot/sn=   18172.2961 T*S(rot)=     6.70 kcal/mol T*S(tot)=    19.79 kcal/mol
 sn= 6  qrot/sn=   15143.5801 T*S(rot)=     6.59 kcal/mol T*S(tot)=    19.68 kcal/mol
 sn= 7  qrot/sn=   12980.2115 T*S(rot)=     6.50 kcal/mol T*S(tot)=    19.59 kcal/mol
 sn= 8  qrot/sn=   11357.6851 T*S(rot)=     6.42 kcal/mol T*S(tot)=    19.51 kcal/mol
 sn= 9  qrot/sn=   10095.7201 T*S(rot)=     6.35 kcal/mol T*S(tot)=    19.44 kcal/mol
 sn=10  qrot/sn=    9086.1481 T*S(rot)=     6.29 kcal/mol T*S(tot)=    19.38 kcal/mol
 sn=11  qrot/sn=    8260.1346 T*S(rot)=     6.23 kcal/mol T*S(tot)=    19.32 kcal/mol
 sn=12  qrot/sn=    7571.7901 T*S(rot)=     6.18 kcal/mol T*S(tot)=    19.27 kcal/mol

-------------------
GIBBS FREE ENTHALPY
-------------------

The Gibbs free enthalpy is G = H - T*S

Total enthalpy                    ...   -231.91666910 Eh
Total entropy correction          ...     -0.03201727 Eh    -20.09 kcal/mol
-----------------------------------------------------------------------
Final Gibbs free enthalpy         ...   -231.94868638 Eh

For completeness - the Gibbs free enthalpy minus the electronic energy
G-E(el)                           ...      0.07083144 Eh     44.45 kcal/mol

                             ****ORCA TERMINATED NORMALLY****
TOTAL RUN TIME: 0 days 0 hours 8 minutes 31 seconds 336 msec
