                         Program Version 4.0.1.2 - RELEASE -
|  1> # avogadro generated ORCA input file
|  2> # Basic Mode
|  3> #
|  4> ! PBE FREQ def2-TZVP
|  5>
|  6> * xyzfile 0 1 NH3.xyz
|  7>
|  8>
|  9>                          ****END OF INPUT****

CARTESIAN COORDINATES (ANGSTROEM)
---------------------------------
  N     -2.123920    0.631020   -0.000000
  H     -1.353830    0.391930    0.640860
  H     -1.813380    1.366780   -0.650480
  H     -2.398550   -0.205830   -0.534010

 Total Charge           Charge          ....    0
 Multiplicity           Mult            ....    1
 Number of Electrons    NEL             ....   10
 Basis Dimension        Dim             ....   49

ORBITAL ENERGIES
----------------

  NO   OCC          E(Eh)            E(eV)
   0   2.0000     -13.958477      -379.8295
   1   2.0000      -0.763373       -20.7724
   2   2.0000      -0.410333       -11.1657
   3   2.0000      -0.410191       -11.1619
   4   2.0000      -0.212075        -5.7709
   5   0.0000       0.007149         0.1945
   6   0.0000       0.087199         2.3728
   7   0.0000       0.087771         2.3884
   8   0.0000       0.272550         7.4165
   9   0.0000       0.273232         7.4350

MULLIKEN ATOMIC CHARGES
-----------------------
   0 N :   -0.693674
   1 H :    0.231869
   2 H :    0.232033
   3 H :    0.229773
Sum of atomic charges:   -0.0000000

LOEWDIN ATOMIC CHARGES
----------------------
   0 N :   -0.412272
   1 H :    0.137613
   2 H :    0.137421
   3 H :    0.137238

  Mayer bond orders larger than 0.1
B(  0-N ,  1-H ) :   0.9415 B(  0-N ,  2-H ) :   0.9411 B(  0-N ,  3-H ) :   0.9419

FINAL SINGLE POINT ENERGY       -56.507425754287

DIPOLE MOMENT
-------------
                                X             Y             Z
Electronic contribution:     -0.15324       0.06475       0.10594
Nuclear contribution   :      0.62164      -0.26237      -0.41929
                        -----------------------------------------
Total Dipole Moment    :      0.46841      -0.19762      -0.31334
                        -----------------------------------------
Magnitude (a.u.)       :      0.59720
Magnitude (Debye)      :      1.51795

VIBRATIONAL FREQUENCIES
-----------------------

   0:         0.00 cm**-1
   1:         0.00 cm**-1
   2:         0.00 cm**-1
   3:         0.00 cm**-1
   4:         0.00 cm**-1
   5:         0.00 cm**-1
   6:       912.88 cm**-1
   7:      1627.61 cm**-1
   8:      1628.34 cm**-1
   9:      3282.59 cm**-1
  10:      3425.26 cm**-1
  11:      3425.60 cm**-1

IR SPECTRUM
-----------

 Mode    freq (cm**-1)   T**2         TX         TY         TZ
-------------------------------------------------------------------
   6:       912.88  187.719271  (-10.723003   4.532497   7.224468)
   7:      1627.61   23.061673  (  2.373062   4.063685   0.957453)
   8:      1628.34   22.897784  ( -1.826434   1.990115  -3.949856)
   9:      3282.59    1.412688  ( -0.917458   0.383131   0.651284)
  10:      3425.26    2.678953  ( -0.257052   1.167276  -1.118188)
  11:      3425.60    2.739709  (  0.999005   1.008639   0.851086)

--------------------------
THERMOCHEMISTRY AT 298.15K
--------------------------

Temperature         ... 298.15 K
Pressure            ... 1.00 atm
Total Mass          ... 17.03 AMU

Throughout the following assumptions are being made:
  (1) The electronic state is orbitally nondegenerate
  (2) There are no thermally accessible electronically excited states
  (3) Hindered rotations indicated by low frequency modes are not
      treated as such but are treated as vibrations and this may
      cause some error
  (4) All equations used are the standard statistical mechanics
      equations for an ideal gas
  (5) All vibrations are strictly harmonic

freq.     912.88  E(vib)   ...       0.03
freq.    1627.61  E(vib)   ...       0.00
freq.    1628.34  E(vib)   ...       0.00
freq.    3282.59  E(vib)   ...       0.00
freq.    3425.26  E(vib)   ...       0.00
freq.    3425.60  E(vib)   ...       0.00

------------
INNER ENERGY
------------

The inner energy is: U= E(el) + E(ZPE) + E(vib) + E(rot) + E(trans)
    E(el)   - is the total energy from the electronic structure calculation
              = E(kin-el) + E(nuc-el) + E(el-el) + E(nuc-nuc)
    E(ZPE)  - the the zero temperature vibrational energy from the frequency calculation
    E(vib)  - the the finite temperature correction to E(ZPE) due to population
              of excited vibrational states
    E(rot)  - is the rotational thermal energy
    E(trans)- is the translational thermal energy

Summary of contributions to the inner energy U:
Electronic energy                ...    -56.50742575 Eh
Zero point energy                ...      0.03258297 Eh      20.45 kcal/mol
Thermal vibrational correction   ...      0.00005719 Eh       0.04 kcal/mol
Thermal rotational correction    ...      0.00141627 Eh       0.89 kcal/mol
Thermal translational correction ...      0.00141627 Eh       0.89 kcal/mol
-----------------------------------------------------------------------
Total thermal energy                    -56.47195306 Eh

Summary of corrections to the electronic energy:
(perhaps to be used in another calculation)
Total thermal correction                  0.00288973 Eh       1.81 kcal/mol
Non-thermal (ZPE) correction              0.03258297 Eh      20.45 kcal/mol
-----------------------------------------------------------------------
Total correction                          0.03547270 Eh      22.26 kcal/mol

--------
ENTHALPY
--------

The enthalpy is H = U + kB*T
                kB is Boltzmann's constant
Total free energy                 ...    -56.47195306 Eh
Thermal Enthalpy correction       ...      0.00094421 Eh       0.59 kcal/mol
-----------------------------------------------------------------------
Total Enthalpy                    ...    -56.47100885 Eh

Vibrational entropy computed according to the QRRHO of S. Grimme
Chem.Eur.J. 2012 18 9955

-------
ENTROPY
-------

The entropy contributions are T*S = T*(S(el)+S(vib)+S(rot)+S(trans)
     S(el)   - electronic entropy
     S(vib)  - vibrational entropy
     S(rot)  - rotational entropy
     S(trans)- translational entropy
The entropies will be listed as mutliplied by the temperature to get
units of energy

Electronic entropy                ...      0.00000000 Eh      0.00 kcal/mol
Vibrational entropy               ...      0.00006956 Eh      0.04 kcal/mol
Rotational entropy                ...      0.00547906 Eh      3.44 kcal/mol
Translational entropy             ...      0.01636425 Eh     10.27 kcal/mol
-----------------------------------------------------------------------
Final entropy term                ...      0.02191287 Eh     13.75 kcal/mol

CAUTION: The rotational entropy is not quite correctly treated here
         because it includes a symmetry number that is not yet correctly
         implemented in ORCA!
For a nonlinear molecule the correct rotational entropy is:
    S(rot) = R*(ln(qrot/sn)+1.5)
    R    = 8.31441 J/mol/K = 1.987191683e-3 kcal/mol/K
    qrot =  221.7589019
    sn is the rotational symmetry number. We have assumed 3 here
       if it is different for your molecule then you should correct
       the printed rotational entropy by manually evaluating the equation
       as given above

For convenience we print out the resulting values for sn=1 - 12:
 sn= 1  qrot/sn=     221.7589 T*S(rot)=     4.09 kcal/mol T*S(tot)=    14.40 kcal/mol
 sn= 2  qrot/sn=     110.8795 T*S(rot)=     3.68 kcal/mol T*S(tot)=    13.99 kcal/mol
 sn= 3  qrot/sn=      73.9196 T*S(rot)=     3.44 kcal/mol T*S(tot)=    13.75 kcal/mol
 sn= 4  qrot/sn=      55.4397 T*S(rot)=     3.27 kcal/mol T*S(tot)=    13.58 kcal/mol
 sn= 5  qrot/sn=      44.3518 T*S(rot)=     3.14 kcal/mol T*S(tot)=    13.45 kcal/mol
 sn= 6  qrot/sn=      36.9598 T*S(rot)=     3.03 kcal/mol T*S(tot)=    13.34 kcal/mol
 sn= 7  qrot/sn=      31.6798 T*S(rot)=     2.94 kcal/mol T*S(tot)=    13.25 kcal/mol
 sn= 8  qrot/sn=      27.7199 T*S(rot)=     2.86 kcal/mol T*S(tot)=    13.17 kcal/mol
 sn= 9  qrot/sn=      24.6399 T*S(rot)=     2.79 kcal/mol T*S(tot)=    13.10 kcal/mol
 sn=10  qrot/sn=      22.1759 T*S(rot)=     2.72 kcal/mol T*S(tot)=    13.04 kcal/mol
 sn=11  qrot/sn=      20.1599 T*S(rot)=     2.67 kcal/mol T*S(tot)=    12.98 kcal/mol
 sn=12  qrot/sn=      18.4799 T*S(rot)=     2.62 kcal/mol T*S(tot)=    12.93 kcal/mol

-------------------
GIBBS FREE ENTHALPY
-------------------

The Gibbs free enthalpy is G = H - T*S

Total enthalpy                    ...    -56.47100885 Eh
Total entropy correction          ...     -0.02191287 Eh    -13.75 kcal/mol
-----------------------------------------------------------------------
Final Gibbs free enthalpy         ...    -56.49292172 Eh

For completeness - the Gibbs free enthalpy minus the electronic energy
G-E(el)                           ...      0.01450404 Eh      9.10 kcal/mol

                             ****ORCA TERMINATED NORMALLY****
TOTAL RUN TIME: 0 days 0 hours 0 minutes 18 seconds 134 msec
