                         Program Version 4.0.1.2 - RELEASE -
|  1> # avogadro generated ORCA input file
|  2> # Basic Mode
|  3> #
|  4> ! PBE OPT def2-TZVP
|  5>
|  6> * xyzfile 0 1 NH3.xyz
|  7>
|  8>
|  9>                          ****END OF INPUT****
 Total Charge           Charge          ....    0
 Multiplicity           Mult            ....    1
 Number of Electrons    NEL             ....   10
FINAL SINGLE POINT ENERGY       -56.507425751619
FINAL SINGLE POINT ENERGY       -56.508037849305
FINAL SINGLE POINT ENERGY       -56.508143756188
FINAL SINGLE POINT ENERGY       -56.508201989759
FINAL SINGLE POINT ENERGY       -56.508202465904
                    ***********************HURRAY********************

CARTESIAN COORDINATES (ANGSTROEM)
---------------------------------
  N     -2.151444    0.642568    0.018616
  H     -1.358176    0.391447    0.612524
  H     -1.805379    1.339924   -0.644065
  H     -2.374681   -0.190039   -0.530705

 Multiplicity           Mult            ....    1
 Number of Electrons    NEL             ....   10
 Basis Dimension        Dim             ....   49

ORBITAL ENERGIES
----------------

  NO   OCC          E(Eh)            E(eV)
   0   2.0000     -13.958640      -379.8339
   1   2.0000      -0.771905       -21.0046
   2   2.0000      -0.408933       -11.1276
   3   2.0000      -0.408833       -11.1249
   4   2.0000      -0.220272        -5.9939
   5   0.0000       0.007416         0.2018
   6   0.0000       0.088101         2.3974
   7   0.0000       0.088700         2.4137
   8   0.0000       0.271418         7.3857
   9   0.0000       0.272422         7.4130

MULLIKEN ATOMIC CHARGES
-----------------------
   0 N :   -0.677252
   1 H :    0.226631
   2 H :    0.226774
   3 H :    0.223847
Sum of atomic charges:   -0.0000000

LOEWDIN ATOMIC CHARGES
----------------------
   0 N :   -0.402986
   1 H :    0.134484
   2 H :    0.134414
   3 H :    0.134087

  Mayer bond orders larger than 0.1
B(  0-N ,  1-H ) :   0.9444 B(  0-N ,  2-H ) :   0.9446 B(  0-N ,  3-H ) :   0.9457

FINAL SINGLE POINT ENERGY       -56.508202464570

DIPOLE MOMENT
-------------
                                X             Y             Z
Electronic contribution:     -0.18482       0.07761       0.12537
Nuclear contribution   :      0.70656      -0.29800      -0.47672
                        -----------------------------------------
Total Dipole Moment    :      0.52174      -0.22039      -0.35135
                        -----------------------------------------
Magnitude (a.u.)       :      0.66650
Magnitude (Debye)      :      1.69412

                             ****ORCA TERMINATED NORMALLY****
TOTAL RUN TIME: 0 days 0 hours 0 minutes 15 seconds 342 msec
