                         Program Version 4.0.1.2 - RELEASE -
|  1> # avogadro generated ORCA input file
|  2> # Basic Mode
|  3> #
|  4> ! PBE FREQ def2-TZVP
|  5>
|  6> * xyzfile 0 1 opt.xyz
|  7>
|  8>
|  9>                          ****END OF INPUT****

CARTESIAN COORDINATES (ANGSTROEM)
---------------------------------
  C     -0.047665    0.018084   -0.007183
  C      1.343873    0.492019    0.413403
  C      2.384906   -0.629772    0.433240
  C      3.781202   -0.168099    0.855060
  C      4.822234   -1.289890    0.874897
  C      6.213772   -0.815955    1.295484
  H      6.939587   -1.642373    1.296797
  H      6.591816   -0.038922    0.613224
  H      6.198070   -0.384994    2.308454
  H      4.480786   -2.088021    1.556595
  H      4.876786   -1.750502   -0.126655
  H      4.123134    0.632325    0.174473
  H      3.726165    0.292536    1.858084
  H      2.042973   -1.430196    1.113828
  H      2.439943   -1.090408   -0.569784
  H      1.685321    1.290150   -0.268294
  H      1.289321    0.952630    1.414955
  H     -0.773479    0.844502   -0.008496
  H     -0.031962   -0.412877   -1.020153
  H     -0.425709   -0.758950    0.675076

 Total Charge           Charge          ....    0
 Multiplicity           Mult            ....    1
 Number of Electrons    NEL             ....   50
 Basis Dimension        Dim             ....  270

ORBITAL ENERGIES
----------------

  NO   OCC          E(Eh)            E(eV)
   0   2.0000      -9.876307      -268.7480
   1   2.0000      -9.876304      -268.7479
   2   2.0000      -9.874127      -268.6887
   3   2.0000      -9.874025      -268.6859
   4   2.0000      -9.868828      -268.5445
   5   2.0000      -9.868828      -268.5445
   6   2.0000      -0.730384       -19.8748
   7   2.0000      -0.694344       -18.8941
   8   2.0000      -0.638571       -17.3764
   9   2.0000      -0.572380       -15.5752
  10   2.0000      -0.519101       -14.1255
  11   2.0000      -0.513259       -13.9665
  12   2.0000      -0.427191       -11.6245
  13   2.0000      -0.395535       -10.7631
  14   2.0000      -0.388435       -10.5699
  15   2.0000      -0.374370       -10.1871
  16   2.0000      -0.351358        -9.5609
  17   2.0000      -0.338107        -9.2003
  18   2.0000      -0.333400        -9.0723
  19   2.0000      -0.308611        -8.3977
  20   2.0000      -0.298135        -8.1127
  21   2.0000      -0.284074        -7.7300
  22   2.0000      -0.282124        -7.6770
  23   2.0000      -0.275527        -7.4975
  24   2.0000      -0.271734        -7.3943
  25   0.0000       0.015237         0.4146
  26   0.0000       0.027106         0.7376
  27   0.0000       0.046492         1.2651
  28   0.0000       0.048933         1.3315
  29   0.0000       0.053713         1.4616

MULLIKEN ATOMIC CHARGES
-----------------------
   0 C :   -0.342660
   1 C :   -0.146706
   2 C :   -0.182738
   3 C :   -0.182738
   4 C :   -0.146707
   5 C :   -0.342660
   6 H :    0.124748
   7 H :    0.110545
   8 H :    0.104246
   9 H :    0.088383
  10 H :    0.084475
  11 H :    0.080838
  12 H :    0.078869
  13 H :    0.080838
  14 H :    0.078869
  15 H :    0.088383
  16 H :    0.084475
  17 H :    0.124748
  18 H :    0.104246
  19 H :    0.110545
Sum of atomic charges:   -0.0000000

LOEWDIN ATOMIC CHARGES
----------------------
   0 C :   -0.325035
   1 C :   -0.302282
   2 C :   -0.276852
   3 C :   -0.276852
   4 C :   -0.302282
   5 C :   -0.325035
   6 H :    0.121128
   7 H :    0.120457
   8 H :    0.120171
   9 H :    0.134855
  10 H :    0.134748
  11 H :    0.136519
  12 H :    0.136291
  13 H :    0.136519
  14 H :    0.136291
  15 H :    0.134855
  16 H :    0.134748
  17 H :    0.121128
  18 H :    0.120171
  19 H :    0.120457

  Mayer bond orders larger than 0.1
B(  0-C ,  1-C ) :   1.0127 B(  0-C , 17-H ) :   0.9673 B(  0-C , 18-H ) :   0.9644
B(  0-C , 19-H ) :   0.9666 B(  1-C ,  2-C ) :   1.0357 B(  1-C , 15-H ) :   0.9512
B(  1-C , 16-H ) :   0.9479 B(  2-C ,  3-C ) :   1.0324 B(  2-C , 13-H ) :   0.9465
B(  2-C , 14-H ) :   0.9441 B(  3-C ,  4-C ) :   1.0357 B(  3-C , 11-H ) :   0.9465
B(  3-C , 12-H ) :   0.9441 B(  4-C ,  5-C ) :   1.0127 B(  4-C ,  9-H ) :   0.9512
B(  4-C , 10-H ) :   0.9479 B(  5-C ,  6-H ) :   0.9673 B(  5-C ,  7-H ) :   0.9666
B(  5-C ,  8-H ) :   0.9644

FINAL SINGLE POINT ENERGY      -236.811739619117

DIPOLE MOMENT
-------------
                                X             Y             Z
Electronic contribution:      0.00000      -0.00000      -0.00000
Nuclear contribution   :     -0.00000       0.00000       0.00000
                        -----------------------------------------
Total Dipole Moment    :      0.00000       0.00000      -0.00000
                        -----------------------------------------
Magnitude (a.u.)       :      0.00000
Magnitude (Debye)      :      0.00000

VIBRATIONAL FREQUENCIES
-----------------------

   0:         0.00 cm**-1
   1:         0.00 cm**-1
   2:         0.00 cm**-1
   3:         0.00 cm**-1
   4:         0.00 cm**-1
   5:         0.00 cm**-1
   6:        71.14 cm**-1
   7:        95.19 cm**-1
   8:       124.69 cm**-1
   9:       145.48 cm**-1
  10:       231.45 cm**-1
  11:       242.45 cm**-1
  12:       286.37 cm**-1
  13:       356.72 cm**-1
  14:       450.36 cm**-1
  15:       710.91 cm**-1
  16:       723.74 cm**-1
  17:       781.10 cm**-1
  18:       873.17 cm**-1
  19:       877.61 cm**-1
  20:       881.96 cm**-1
  21:       980.37 cm**-1
  22:       999.75 cm**-1
  23:      1029.98 cm**-1
  24:      1052.11 cm**-1
  25:      1053.64 cm**-1
  26:      1126.66 cm**-1
  27:      1163.08 cm**-1
  28:      1208.63 cm**-1
  29:      1226.14 cm**-1
  30:      1263.51 cm**-1
  31:      1284.56 cm**-1
  32:      1290.29 cm**-1
  33:      1291.02 cm**-1
  34:      1335.91 cm**-1
  35:      1343.38 cm**-1
  36:      1356.31 cm**-1
  37:      1359.66 cm**-1
  38:      1429.17 cm**-1
  39:      1430.06 cm**-1
  40:      1437.77 cm**-1
  41:      1445.81 cm**-1
  42:      1446.13 cm**-1
  43:      1446.21 cm**-1
  44:      1454.68 cm**-1
  45:      1459.89 cm**-1
  46:      2929.41 cm**-1
  47:      2934.35 cm**-1
  48:      2946.07 cm**-1
  49:      2949.89 cm**-1
  50:      2950.06 cm**-1
  51:      2961.46 cm**-1
  52:      2961.59 cm**-1
  53:      2962.81 cm**-1
  54:      2979.71 cm**-1
  55:      2991.58 cm**-1
  56:      3027.09 cm**-1
  57:      3027.50 cm**-1
  58:      3033.70 cm**-1
  59:      3033.71 cm**-1

IR SPECTRUM
-----------

 Mode    freq (cm**-1)   T**2         TX         TY         TZ
-------------------------------------------------------------------
   6:        71.14    0.009328  ( -0.028795  -0.010533   0.091584)
   7:        95.19    0.008020  (  0.037609  -0.081258  -0.001672)
   8:       124.69    0.003737  (  0.050450   0.017661   0.029668)
   9:       145.48    0.000000  (  0.000002   0.000002   0.000000)
  10:       231.45    0.000000  (  0.000002   0.000000   0.000002)
  11:       242.45    0.012267  ( -0.015045   0.105722  -0.029391)
  12:       286.37    0.000000  ( -0.000000   0.000000  -0.000000)
  13:       356.72    0.000000  ( -0.000001   0.000001   0.000000)
  14:       450.36    0.068593  (  0.181070   0.174332   0.073586)
  15:       710.91    5.063704  (  0.502316   0.447691  -2.147314)
  16:       723.74    0.000000  (  0.000002   0.000001  -0.000005)
  17:       781.10    1.309155  ( -0.295765  -0.227795   1.081567)
  18:       873.17    3.493030  (  1.296218  -1.344228   0.076807)
  19:       877.61    0.000000  ( -0.000002   0.000001   0.000000)
  20:       881.96    0.000000  (  0.000002  -0.000001   0.000001)
  21:       980.37    0.475952  ( -0.189773  -0.181285   0.638023)
  22:       999.75    0.000000  (  0.000000   0.000001  -0.000000)
  23:      1029.98    0.831533  (  0.799779  -0.411558   0.150024)
  24:      1052.11    3.955387  ( -1.174738   1.604760  -0.011107)
  25:      1053.64    0.000000  ( -0.000003   0.000003  -0.000000)
  26:      1126.66    0.000000  (  0.000001   0.000000   0.000000)
  27:      1163.08    0.000000  ( -0.000002   0.000000  -0.000000)
  28:      1208.63    0.000072  (  0.004667  -0.005305   0.004674)
  29:      1226.14    1.903516  (  1.297684  -0.440544   0.159541)
  30:      1263.51    0.000000  (  0.000000  -0.000000  -0.000000)
  31:      1284.56    0.000000  ( -0.000001  -0.000001   0.000000)
  32:      1290.29    0.940708  (  0.223922   0.251282  -0.909629)
  33:      1291.02    0.000000  (  0.000001   0.000004  -0.000009)
  34:      1335.91    2.270305  (  1.464196   0.204143   0.291138)
  35:      1343.38    0.000000  ( -0.000001   0.000001  -0.000000)
  36:      1356.31    6.387069  (  2.003868   1.316387   0.799191)
  37:      1359.66    0.000000  ( -0.000003  -0.000002  -0.000001)
  38:      1429.17    0.000000  (  0.000004  -0.000001   0.000003)
  39:      1430.06    0.403635  (  0.622626  -0.092976   0.085598)
  40:      1437.77    0.000000  (  0.000000  -0.000001  -0.000000)
  41:      1445.81   10.173231  (  1.600098   0.014807  -2.759112)
  42:      1446.13    8.698501  ( -0.192960   0.915539  -2.796973)
  43:      1446.21    0.000000  ( -0.000030   0.000042  -0.000084)
  44:      1454.68    0.000000  (  0.000002   0.000001   0.000002)
  45:      1459.89   13.224442  ( -0.139160   3.586649   0.583974)
  46:      2929.41    0.000000  ( -0.000003  -0.000003   0.000004)
  47:      2934.35    8.205094  (  0.554679   2.677219   0.854357)
  48:      2946.07    0.000000  ( -0.000011  -0.000059  -0.000017)
  49:      2949.89    0.000000  ( -0.000054  -0.000351  -0.000087)
  50:      2950.06  100.131893  (  1.529184   9.592555   2.403409)
  51:      2961.46   87.952035  (  7.971259   4.168444   2.652384)
  52:      2961.59    0.000000  (  0.000097   0.000051   0.000033)
  53:      2962.81    0.416396  ( -0.369441  -0.448408   0.280783)
  54:      2979.71    0.000000  ( -0.000001   0.000002   0.000020)
  55:      2991.58   72.021691  ( -1.947981  -1.818182   8.057374)
  56:      3027.09    0.000000  ( -0.000016  -0.000022   0.000077)
  57:      3027.50  103.933157  ( -2.273557  -1.714591   9.788987)
  58:      3033.70    0.000250  ( -0.006953   0.014168   0.000866)
  59:      3033.71   70.611826  (  3.697928  -7.531351  -0.464653)

--------------------------
THERMOCHEMISTRY AT 298.15K
--------------------------

Temperature         ... 298.15 K
Pressure            ... 1.00 atm
Total Mass          ... 86.18 AMU

Throughout the following assumptions are being made:
  (1) The electronic state is orbitally nondegenerate
  (2) There are no thermally accessible electronically excited states
  (3) Hindered rotations indicated by low frequency modes are not
      treated as such but are treated as vibrations and this may
      cause some error
  (4) All equations used are the standard statistical mechanics
      equations for an ideal gas
  (5) All vibrations are strictly harmonic

freq.      71.14  E(vib)   ...       0.50
freq.      95.19  E(vib)   ...       0.47
freq.     124.69  E(vib)   ...       0.43
freq.     145.48  E(vib)   ...       0.41
freq.     231.45  E(vib)   ...       0.32
freq.     242.45  E(vib)   ...       0.31
freq.     286.37  E(vib)   ...       0.27
freq.     356.72  E(vib)   ...       0.22
freq.     450.36  E(vib)   ...       0.17
freq.     710.91  E(vib)   ...       0.07
freq.     723.74  E(vib)   ...       0.06
freq.     781.10  E(vib)   ...       0.05
freq.     873.17  E(vib)   ...       0.04
freq.     877.61  E(vib)   ...       0.04
freq.     881.96  E(vib)   ...       0.04
freq.     980.37  E(vib)   ...       0.02
freq.     999.75  E(vib)   ...       0.02
freq.    1029.98  E(vib)   ...       0.02
freq.    1052.11  E(vib)   ...       0.02
freq.    1053.64  E(vib)   ...       0.02
freq.    1126.66  E(vib)   ...       0.01
freq.    1163.08  E(vib)   ...       0.01
freq.    1208.63  E(vib)   ...       0.01
freq.    1226.14  E(vib)   ...       0.01
freq.    1263.51  E(vib)   ...       0.01
freq.    1284.56  E(vib)   ...       0.01
freq.    1290.29  E(vib)   ...       0.01
freq.    1291.02  E(vib)   ...       0.01
freq.    1335.91  E(vib)   ...       0.01
freq.    1343.38  E(vib)   ...       0.01
freq.    1356.31  E(vib)   ...       0.01
freq.    1359.66  E(vib)   ...       0.01
freq.    1429.17  E(vib)   ...       0.00
freq.    1430.06  E(vib)   ...       0.00
freq.    1437.77  E(vib)   ...       0.00
freq.    1445.81  E(vib)   ...       0.00
freq.    1446.13  E(vib)   ...       0.00
freq.    1446.21  E(vib)   ...       0.00
freq.    1454.68  E(vib)   ...       0.00
freq.    1459.89  E(vib)   ...       0.00
freq.    2929.41  E(vib)   ...       0.00
freq.    2934.35  E(vib)   ...       0.00
freq.    2946.07  E(vib)   ...       0.00
freq.    2949.89  E(vib)   ...       0.00
freq.    2950.06  E(vib)   ...       0.00
freq.    2961.46  E(vib)   ...       0.00
freq.    2961.59  E(vib)   ...       0.00
freq.    2962.81  E(vib)   ...       0.00
freq.    2979.71  E(vib)   ...       0.00
freq.    2991.58  E(vib)   ...       0.00
freq.    3027.09  E(vib)   ...       0.00
freq.    3027.50  E(vib)   ...       0.00
freq.    3033.70  E(vib)   ...       0.00
freq.    3033.71  E(vib)   ...       0.00

------------
INNER ENERGY
------------

The inner energy is: U= E(el) + E(ZPE) + E(vib) + E(rot) + E(trans)
    E(el)   - is the total energy from the electronic structure calculation
              = E(kin-el) + E(nuc-el) + E(el-el) + E(nuc-nuc)
    E(ZPE)  - the the zero temperature vibrational energy from the frequency calculation
    E(vib)  - the the finite temperature correction to E(ZPE) due to population
              of excited vibrational states
    E(rot)  - is the rotational thermal energy
    E(trans)- is the translational thermal energy

Summary of contributions to the inner energy U:
Electronic energy                ...   -236.81173962 Eh
Zero point energy                ...      0.18329219 Eh     115.02 kcal/mol
Thermal vibrational correction   ...      0.00578969 Eh       3.63 kcal/mol
Thermal rotational correction    ...      0.00141627 Eh       0.89 kcal/mol
Thermal translational correction ...      0.00141627 Eh       0.89 kcal/mol
-----------------------------------------------------------------------
Total thermal energy                   -236.61982520 Eh

Summary of corrections to the electronic energy:
(perhaps to be used in another calculation)
Total thermal correction                  0.00862223 Eh       5.41 kcal/mol
Non-thermal (ZPE) correction              0.18329219 Eh     115.02 kcal/mol
-----------------------------------------------------------------------
Total correction                          0.19191442 Eh     120.43 kcal/mol

--------
ENTHALPY
--------

The enthalpy is H = U + kB*T
                kB is Boltzmann's constant
Total free energy                 ...   -236.61982520 Eh
Thermal Enthalpy correction       ...      0.00094421 Eh       0.59 kcal/mol
-----------------------------------------------------------------------
Total Enthalpy                    ...   -236.61888099 Eh

Vibrational entropy computed according to the QRRHO of S. Grimme
Chem.Eur.J. 2012 18 9955

-------
ENTROPY
-------

The entropy contributions are T*S = T*(S(el)+S(vib)+S(rot)+S(trans)
     S(el)   - electronic entropy
     S(vib)  - vibrational entropy
     S(rot)  - rotational entropy
     S(trans)- translational entropy
The entropies will be listed as mutliplied by the temperature to get
units of energy

Electronic entropy                ...      0.00000000 Eh      0.00 kcal/mol
Vibrational entropy               ...      0.01019923 Eh      6.40 kcal/mol
Rotational entropy                ...      0.01192806 Eh      7.48 kcal/mol
Translational entropy             ...      0.01866056 Eh     11.71 kcal/mol
-----------------------------------------------------------------------
Final entropy term                ...      0.04078785 Eh     25.59 kcal/mol

CAUTION: The rotational entropy is not quite correctly treated here
         because it includes a symmetry number that is not yet correctly
         implemented in ORCA!
For a nonlinear molecule the correct rotational entropy is:
    S(rot) = R*(ln(qrot/sn)+1.5)
    R    = 8.31441 J/mol/K = 1.987191683e-3 kcal/mol/K
    qrot = 205221.7573363
    sn is the rotational symmetry number. We have assumed 3 here
       if it is different for your molecule then you should correct
       the printed rotational entropy by manually evaluating the equation
       as given above

For convenience we print out the resulting values for sn=1 - 12:
 sn= 1  qrot/sn=  205221.7573 T*S(rot)=     8.14 kcal/mol T*S(tot)=    26.25 kcal/mol
 sn= 2  qrot/sn=  102610.8787 T*S(rot)=     7.73 kcal/mol T*S(tot)=    25.83 kcal/mol
 sn= 3  qrot/sn=   68407.2524 T*S(rot)=     7.48 kcal/mol T*S(tot)=    25.59 kcal/mol
 sn= 4  qrot/sn=   51305.4393 T*S(rot)=     7.31 kcal/mol T*S(tot)=    25.42 kcal/mol
 sn= 5  qrot/sn=   41044.3515 T*S(rot)=     7.18 kcal/mol T*S(tot)=    25.29 kcal/mol
 sn= 6  qrot/sn=   34203.6262 T*S(rot)=     7.07 kcal/mol T*S(tot)=    25.18 kcal/mol
 sn= 7  qrot/sn=   29317.3939 T*S(rot)=     6.98 kcal/mol T*S(tot)=    25.09 kcal/mol
 sn= 8  qrot/sn=   25652.7197 T*S(rot)=     6.90 kcal/mol T*S(tot)=    25.01 kcal/mol
 sn= 9  qrot/sn=   22802.4175 T*S(rot)=     6.83 kcal/mol T*S(tot)=    24.94 kcal/mol

                             ****ORCA TERMINATED NORMALLY****
TOTAL RUN TIME: 0 days 0 hours 15 minutes 42 seconds 546 msec
