                         Program Version 4.0.1.2 - RELEASE -
|  1> # avogadro generated ORCA input file
|  2> # Basic Mode
|  3> #
|  4> ! PBE OPT def2-TZVP
|  5>
|  6> * xyzfile 0 1 C6H14.xyz
|  7>
|  8>
|  9>                          ****END OF INPUT****
 Total Charge           Charge          ....    0
 Multiplicity           Mult            ....    1
 Number of Electrons    NEL             ....   50
FINAL SINGLE POINT ENERGY      -236.806398032787
FINAL SINGLE POINT ENERGY      -236.810541010704
FINAL SINGLE POINT ENERGY      -236.811510668142
FINAL SINGLE POINT ENERGY      -236.811709743541
FINAL SINGLE POINT ENERGY      -236.811736906989
FINAL SINGLE POINT ENERGY      -236.811739612264
                    ***********************HURRAY********************

CARTESIAN COORDINATES (ANGSTROEM)
---------------------------------
  C     -0.047665    0.018084   -0.007183
  C      1.343873    0.492019    0.413403
  C      2.384906   -0.629772    0.433240
  C      3.781202   -0.168099    0.855060
  C      4.822234   -1.289890    0.874897
  C      6.213772   -0.815955    1.295484
  H      6.939587   -1.642373    1.296797
  H      6.591816   -0.038922    0.613224
  H      6.198070   -0.384994    2.308454
  H      4.480786   -2.088021    1.556595
  H      4.876786   -1.750502   -0.126655
  H      4.123134    0.632325    0.174473
  H      3.726165    0.292536    1.858084
  H      2.042973   -1.430196    1.113828
  H      2.439943   -1.090408   -0.569784
  H      1.685321    1.290150   -0.268294
  H      1.289321    0.952630    1.414955
  H     -0.773479    0.844502   -0.008496
  H     -0.031962   -0.412877   -1.020153
  H     -0.425709   -0.758950    0.675076

 Multiplicity           Mult            ....    1
 Number of Electrons    NEL             ....   50
 Basis Dimension        Dim             ....  270

ORBITAL ENERGIES
----------------

  NO   OCC          E(Eh)            E(eV)
   0   2.0000      -9.876268      -268.7469
   1   2.0000      -9.876265      -268.7468
   2   2.0000      -9.874217      -268.6911
   3   2.0000      -9.874115      -268.6883
   4   2.0000      -9.868824      -268.5444
   5   2.0000      -9.868824      -268.5444
   6   2.0000      -0.730401       -19.8752
   7   2.0000      -0.694337       -18.8939
   8   2.0000      -0.638577       -17.3766
   9   2.0000      -0.572382       -15.5753
  10   2.0000      -0.519097       -14.1253
  11   2.0000      -0.513269       -13.9668
  12   2.0000      -0.427201       -11.6247
  13   2.0000      -0.395528       -10.7629
  14   2.0000      -0.388441       -10.5700
  15   2.0000      -0.374374       -10.1872
  16   2.0000      -0.351361        -9.5610
  17   2.0000      -0.338100        -9.2002
  18   2.0000      -0.333400        -9.0723
  19   2.0000      -0.308611        -8.3977
  20   2.0000      -0.298132        -8.1126
  21   2.0000      -0.284088        -7.7304
  22   2.0000      -0.282118        -7.6768
  23   2.0000      -0.275535        -7.4977
  24   2.0000      -0.271744        -7.3945
  25   0.0000       0.015235         0.4146
  26   0.0000       0.027109         0.7377
  27   0.0000       0.046491         1.2651
  28   0.0000       0.048930         1.3315
  29   0.0000       0.053714         1.4616

MULLIKEN ATOMIC CHARGES
-----------------------
   0 C :   -0.342668
   1 C :   -0.146826
   2 C :   -0.182649
   3 C :   -0.182649
   4 C :   -0.146826
   5 C :   -0.342668
   6 H :    0.124760
   7 H :    0.110552
   8 H :    0.104253
   9 H :    0.088410
  10 H :    0.084503
  11 H :    0.080817
  12 H :    0.078848
  13 H :    0.080817
  14 H :    0.078848
  15 H :    0.088410
  16 H :    0.084503
  17 H :    0.124760
  18 H :    0.104253
  19 H :    0.110552
Sum of atomic charges:   -0.0000000

LOEWDIN ATOMIC CHARGES
----------------------
   0 C :   -0.325034
   1 C :   -0.302331
   2 C :   -0.276781
   3 C :   -0.276781
   4 C :   -0.302331
   5 C :   -0.325034
   6 H :    0.121129
   7 H :    0.120455
   8 H :    0.120170
   9 H :    0.134860
  10 H :    0.134753
  11 H :    0.136504
  12 H :    0.136275
  13 H :    0.136504
  14 H :    0.136275
  15 H :    0.134860
  16 H :    0.134753
  17 H :    0.121129
  18 H :    0.120170
  19 H :    0.120455

  Mayer bond orders larger than 0.1
B(  0-C ,  1-C ) :   1.0127 B(  0-C , 17-H ) :   0.9673 B(  0-C , 18-H ) :   0.9644
B(  0-C , 19-H ) :   0.9666 B(  1-C ,  2-C ) :   1.0357 B(  1-C , 15-H ) :   0.9512
B(  1-C , 16-H ) :   0.9479 B(  2-C ,  3-C ) :   1.0324 B(  2-C , 13-H ) :   0.9465
B(  2-C , 14-H ) :   0.9442 B(  3-C ,  4-C ) :   1.0357 B(  3-C , 11-H ) :   0.9465
B(  3-C , 12-H ) :   0.9442 B(  4-C ,  5-C ) :   1.0127 B(  4-C ,  9-H ) :   0.9512
B(  4-C , 10-H ) :   0.9479 B(  5-C ,  6-H ) :   0.9673 B(  5-C ,  7-H ) :   0.9666
B(  5-C ,  8-H ) :   0.9644

FINAL SINGLE POINT ENERGY      -236.811739609138

DIPOLE MOMENT
-------------
                                X             Y             Z
Electronic contribution:      0.00000      -0.00000      -0.00000
Nuclear contribution   :     -0.00000       0.00000       0.00000
                        -----------------------------------------
Total Dipole Moment    :      0.00000      -0.00000      -0.00000
                        -----------------------------------------
Magnitude (a.u.)       :      0.00000
Magnitude (Debye)      :      0.00000

                             ****ORCA TERMINATED NORMALLY****
TOTAL RUN TIME: 0 days 0 hours 4 minutes 31 seconds 949 msec
