                         Program Version 4.0.1.2 - RELEASE -
|  1> # avogadro generated ORCA input file
|  2> # Basic Mode
|  3> #
|  4> ! PBE FREQ def2-TZVP
|  5>
|  6> * xyzfile 0 1 opt.xyz
|  7>
|  8>
|  9>                          ****END OF INPUT****

CARTESIAN COORDINATES (ANGSTROEM)
---------------------------------
  B     -3.245947    1.149466    0.260522
  F     -1.952975    1.351679    0.471076
  F     -3.810467    0.013149    0.644589
  F     -3.974851    2.083875   -0.333687

 Total Charge           Charge          ....    0
 Multiplicity           Mult            ....    1
 Number of Electrons    NEL             ....   32
 Basis Dimension        Dim             ....  124

ORBITAL ENERGIES
----------------

  NO   OCC          E(Eh)            E(eV)
   0   2.0000     -24.294281      -661.0810
   1   2.0000     -24.294251      -661.0802
   2   2.0000     -24.294228      -661.0796
   3   2.0000      -6.663460      -181.3220
   4   2.0000      -1.167851       -31.7788
   5   2.0000      -1.132109       -30.8063
   6   2.0000      -1.132023       -30.8039
   7   2.0000      -0.545239       -14.8367
   8   2.0000      -0.508387       -13.8339
   9   2.0000      -0.508368       -13.8334
  10   2.0000      -0.471952       -12.8425
  11   2.0000      -0.407404       -11.0860
  12   2.0000      -0.407370       -11.0851
  13   2.0000      -0.401561       -10.9270
  14   2.0000      -0.401517       -10.9258
  15   2.0000      -0.367829       -10.0091
  16   0.0000      -0.019228        -0.5232
  17   0.0000      -0.014899        -0.4054
  18   0.0000       0.085886         2.3371
  19   0.0000       0.086195         2.3455
  20   0.0000       0.102233         2.7819

MULLIKEN ATOMIC CHARGES
-----------------------
   0 B :    0.572568
   1 F :   -0.191643
   2 F :   -0.190895
   3 F :   -0.190030
Sum of atomic charges:    0.0000000

LOEWDIN ATOMIC CHARGES
----------------------
   0 B :   -1.081846
   1 F :    0.360796
   2 F :    0.360533
   3 F :    0.360517

  Mayer bond orders larger than 0.1
B(  0-B ,  1-F ) :   1.2666 B(  0-B ,  2-F ) :   1.2685 B(  0-B ,  3-F ) :   1.2695

FINAL SINGLE POINT ENERGY      -324.385425224701

DIPOLE MOMENT
-------------
                                X             Y             Z
Electronic contribution:      0.00056      -0.00030      -0.00031
Nuclear contribution   :     -0.00003       0.00002       0.00003
                        -----------------------------------------
Total Dipole Moment    :      0.00053      -0.00028      -0.00028
                        -----------------------------------------
Magnitude (a.u.)       :      0.00066
Magnitude (Debye)      :      0.00168

VIBRATIONAL FREQUENCIES
-----------------------

   0:         0.00 cm**-1
   1:         0.00 cm**-1
   2:         0.00 cm**-1
   3:         0.00 cm**-1
   4:         0.00 cm**-1
   5:         0.00 cm**-1
   6:       454.41 cm**-1
   7:       455.96 cm**-1
   8:       662.84 cm**-1
   9:       858.63 cm**-1
  10:      1419.70 cm**-1
  11:      1419.95 cm**-1

IR SPECTRUM
-----------

 Mode    freq (cm**-1)   T**2         TX         TY         TZ
-------------------------------------------------------------------
   6:       454.41   10.922426  ( -3.231192  -0.171817  -0.672535)
   7:       455.96   10.886138  ( -0.122835  -3.003544   1.360062)
   8:       662.84   79.282352  (  1.852680  -3.611301  -7.925177)
   9:       858.63    0.000432  (  0.017912  -0.002793  -0.010144)
  10:      1419.70  407.049452  (-10.893045  14.364744  -9.057877)
  11:      1419.95  407.163087  (-16.456275 -11.591236   1.413268)

--------------------------
THERMOCHEMISTRY AT 298.15K
--------------------------

Temperature         ... 298.15 K
Pressure            ... 1.00 atm
Total Mass          ... 67.80 AMU

Throughout the following assumptions are being made:
  (1) The electronic state is orbitally nondegenerate
  (2) There are no thermally accessible electronically excited states
  (3) Hindered rotations indicated by low frequency modes are not
      treated as such but are treated as vibrations and this may
      cause some error
  (4) All equations used are the standard statistical mechanics
      equations for an ideal gas
  (5) All vibrations are strictly harmonic

freq.     454.41  E(vib)   ...       0.16
freq.     455.96  E(vib)   ...       0.16
freq.     662.84  E(vib)   ...       0.08
freq.     858.63  E(vib)   ...       0.04
freq.    1419.70  E(vib)   ...       0.00
freq.    1419.95  E(vib)   ...       0.00

------------
INNER ENERGY
------------

The inner energy is: U= E(el) + E(ZPE) + E(vib) + E(rot) + E(trans)
    E(el)   - is the total energy from the electronic structure calculation
              = E(kin-el) + E(nuc-el) + E(el-el) + E(nuc-nuc)
    E(ZPE)  - the the zero temperature vibrational energy from the frequency calculation
    E(vib)  - the the finite temperature correction to E(ZPE) due to population
              of excited vibrational states
    E(rot)  - is the rotational thermal energy
    E(trans)- is the translational thermal energy

Summary of contributions to the inner energy U:
Electronic energy                ...   -324.38542522 Eh
Zero point energy                ...      0.01200935 Eh       7.54 kcal/mol
Thermal vibrational correction   ...      0.00072422 Eh       0.45 kcal/mol
Thermal rotational correction    ...      0.00141627 Eh       0.89 kcal/mol
Thermal translational correction ...      0.00141627 Eh       0.89 kcal/mol
-----------------------------------------------------------------------
Total thermal energy                   -324.36985911 Eh

Summary of corrections to the electronic energy:
(perhaps to be used in another calculation)
Total thermal correction                  0.00355676 Eh       2.23 kcal/mol
Non-thermal (ZPE) correction              0.01200935 Eh       7.54 kcal/mol
-----------------------------------------------------------------------
Total correction                          0.01556612 Eh       9.77 kcal/mol

--------
ENTHALPY
--------

The enthalpy is H = U + kB*T
                kB is Boltzmann's constant
Total free energy                 ...   -324.36985911 Eh
Thermal Enthalpy correction       ...      0.00094421 Eh       0.59 kcal/mol
-----------------------------------------------------------------------
Total Enthalpy                    ...   -324.36891490 Eh

Vibrational entropy computed according to the QRRHO of S. Grimme
Chem.Eur.J. 2012 18 9955

-------
ENTROPY
-------

The entropy contributions are T*S = T*(S(el)+S(vib)+S(rot)+S(trans)
     S(el)   - electronic entropy
     S(vib)  - vibrational entropy
     S(rot)  - rotational entropy
     S(trans)- translational entropy
The entropies will be listed as mutliplied by the temperature to get
units of energy

Electronic entropy                ...      0.00000000 Eh      0.00 kcal/mol
Vibrational entropy               ...      0.00100470 Eh      0.63 kcal/mol
Rotational entropy                ...      0.01034275 Eh      6.49 kcal/mol
Translational entropy             ...      0.01832095 Eh     11.50 kcal/mol
-----------------------------------------------------------------------
Final entropy term                ...      0.02966840 Eh     18.62 kcal/mol

CAUTION: The rotational entropy is not quite correctly treated here
         because it includes a symmetry number that is not yet correctly
         implemented in ORCA!
For a nonlinear molecule the correct rotational entropy is:
    S(rot) = R*(ln(qrot/sn)+1.5)
    R    = 8.31441 J/mol/K = 1.987191683e-3 kcal/mol/K
    qrot = 38285.1290916
    sn is the rotational symmetry number. We have assumed 3 here
       if it is different for your molecule then you should correct
       the printed rotational entropy by manually evaluating the equation
       as given above

For convenience we print out the resulting values for sn=1 - 12:
 sn= 1  qrot/sn=   38285.1291 T*S(rot)=     7.14 kcal/mol T*S(tot)=    19.27 kcal/mol
 sn= 2  qrot/sn=   19142.5645 T*S(rot)=     6.73 kcal/mol T*S(tot)=    18.86 kcal/mol
 sn= 3  qrot/sn=   12761.7097 T*S(rot)=     6.49 kcal/mol T*S(tot)=    18.62 kcal/mol
 sn= 4  qrot/sn=    9571.2823 T*S(rot)=     6.32 kcal/mol T*S(tot)=    18.45 kcal/mol
 sn= 5  qrot/sn=    7657.0258 T*S(rot)=     6.19 kcal/mol T*S(tot)=    18.31 kcal/mol
 sn= 6  qrot/sn=    6380.8548 T*S(rot)=     6.08 kcal/mol T*S(tot)=    18.21 kcal/mol
 sn= 7  qrot/sn=    5469.3042 T*S(rot)=     5.99 kcal/mol T*S(tot)=    18.12 kcal/mol
 sn= 8  qrot/sn=    4785.6411 T*S(rot)=     5.91 kcal/mol T*S(tot)=    18.04 kcal/mol
 sn= 9  qrot/sn=    4253.9032 T*S(rot)=     5.84 kcal/mol T*S(tot)=    17.97 kcal/mol
 sn=10  qrot/sn=    3828.5129 T*S(rot)=     5.78 kcal/mol T*S(tot)=    17.90 kcal/mol
 sn=11  qrot/sn=    3480.4663 T*S(rot)=     5.72 kcal/mol T*S(tot)=    17.85 kcal/mol
 sn=12  qrot/sn=    3190.4274 T*S(rot)=     5.67 kcal/mol T*S(tot)=    17.80 kcal/mol

-------------------
GIBBS FREE ENTHALPY
-------------------

The Gibbs free enthalpy is G = H - T*S

Total enthalpy                    ...   -324.36891490 Eh
Total entropy correction          ...     -0.02966840 Eh    -18.62 kcal/mol
-----------------------------------------------------------------------
Final Gibbs free enthalpy         ...   -324.39858330 Eh

For completeness - the Gibbs free enthalpy minus the electronic energy
G-E(el)                           ...     -0.01315808 Eh     -8.26 kcal/mol

                             ****ORCA TERMINATED NORMALLY****
TOTAL RUN TIME: 0 days 0 hours 0 minutes 35 seconds 141 msec
